BEGIN_CFG
Size
224
Supercell
0.0 0 0
0 0.0 0
0 0 62.4
AtomData: id type cartes_x cartes_y cartes_z fx fy fz
1 0 52.0 42.0431 46.8 6.73493 -8.54695 9.34582e-17
2 2 52.0 42.6742 47.6924 -2.97771 0.208779 -2.56438
3 2 52.0 42.6742 45.9076 -2.97771 0.208779 2.56438
4 2 51.1076 41.4121 46.8 -0.138465 3.80159 -4.94396e-17
5 1 53.2533 41.1569 46.8 -1.83507 14.4235 7.9472e-17
6 2 53.2533 40.5258 45.9076 -0.24094 -1.58879 3.48943
7 2 53.2533 40.5258 47.6924 -0.24094 -1.58879 -3.48943
8 1 54.5066 42.0431 46.8 1.83507 -14.4235 -2.25839e-16
9 2 54.5066 42.6742 47.6924 0.24094 1.58879 -3.48943
10 2 54.5066 42.6742 45.9076 0.24094 1.58879 3.48943
11 0 55.76 41.1569 46.8 -6.73493 8.54695 1.88217e-16
12 2 55.76 40.5258 47.6924 2.97771 -0.208779 -2.56438
13 2 55.76 40.5258 45.9076 2.97771 -0.208779 2.56438
14 2 56.6524 41.7879 46.8 0.138465 -3.80159 -3.29597e-17
15 0 41.6 47.2431 46.8 6.73493 -8.54695 0.0
16 2 41.6 47.8742 47.6924 -2.97771 0.208779 -2.56438
17 2 41.6 47.8742 45.9076 -2.97771 0.208779 2.56438
18 2 40.7076 46.6121 46.8 -0.138465 3.80159 0.0
19 1 42.8533 46.3569 46.8 -1.83507 14.4235 2.22045e-16
20 2 42.8533 45.7258 45.9076 -0.24094 -1.58879 3.48943
21 2 42.8533 45.7258 47.6924 -0.24094 -1.58879 -3.48943
22 1 44.1066 47.2431 46.8 1.83507 -14.4235 0.0
23 2 44.1066 47.8742 47.6924 0.24094 1.58879 -3.48943
24 2 44.1066 47.8742 45.9076 0.24094 1.58879 3.48943
25 0 45.36 46.3569 46.8 -6.73493 8.54695 0.0
26 2 45.36 45.7258 47.6924 2.97771 -0.208779 -2.56438
27 2 45.36 45.7258 45.9076 2.97771 -0.208779 2.56438
28 2 46.2524 46.9879 46.8 0.138465 -3.80159 0.0
29 0 52.0 47.2431 46.8 6.73493 -8.54695 1.9082e-16
30 2 52.0 47.8742 47.6924 -2.97771 0.208779 -2.56438
31 2 52.0 47.8742 45.9076 -2.97771 0.208779 2.56438
32 2 51.1076 46.6121 46.8 -0.138465 3.80159 1.04422e-16
33 1 53.2533 46.3569 46.8 -1.83507 14.4235 1.10426e-16
34 2 53.2533 45.7258 45.9076 -0.24094 -1.58879 3.48943
35 2 53.2533 45.7258 47.6924 -0.24094 -1.58879 -3.48943
36 1 54.5066 47.2431 46.8 1.83507 -14.4235 1.83772e-17
37 2 54.5066 47.8742 47.6924 0.24094 1.58879 -3.48943
38 2 54.5066 47.8742 45.9076 0.24094 1.58879 3.48943
39 0 55.76 46.3569 46.8 -6.73493 8.54695 1.17744e-16
40 2 55.76 45.7258 47.6924 2.97771 -0.208779 -2.56438
41 2 55.76 45.7258 45.9076 2.97771 -0.208779 2.56438
42 2 56.6524 46.9879 46.8 0.138465 -3.80159 -1.12974e-16
43 0 41.6 52.4431 46.8 6.73493 -8.54695 3.04878e-16
44 2 41.6 53.0742 47.6924 -2.97771 0.208779 -2.56438
45 2 41.6 53.0742 45.9076 -2.97771 0.208779 2.56438
46 2 40.7076 51.8121 46.8 -0.138465 3.80159 -7.16624e-17
47 1 42.8533 51.5569 46.8 -1.83507 14.4235 2.22045e-16
48 2 42.8533 50.9258 45.9076 -0.24094 -1.58879 3.48943
49 2 42.8533 50.9258 47.6924 -0.24094 -1.58879 -3.48943
50 1 44.1066 52.4431 46.8 1.83507 -14.4235 -2.48824e-16
51 2 44.1066 53.0742 47.6924 0.24094 1.58879 -3.48943
52 2 44.1066 53.0742 45.9076 0.24094 1.58879 3.48943
53 0 45.36 51.5569 46.8 -6.73493 8.54695 0.0
54 2 45.36 50.9258 47.6924 2.97771 -0.208779 -2.56438
55 2 45.36 50.9258 45.9076 2.97771 -0.208779 2.56438
56 2 46.2524 52.1879 46.8 0.138465 -3.80159 -9.60603e-17
57 0 52.0 52.4431 46.8 6.73493 -8.54695 4.66207e-17
58 2 52.0 53.0742 47.6924 -2.97771 0.208779 -2.56438
59 2 52.0 53.0742 45.9076 -2.97771 0.208779 2.56438
60 2 51.1076 51.8121 46.8 -0.138465 3.80159 3.27565e-17
61 1 53.2533 51.5569 46.8 -1.83507 14.4235 2.12666e-16
62 2 53.2533 50.9258 45.9076 -0.24094 -1.58879 3.48943
63 2 53.2533 50.9258 47.6924 -0.24094 -1.58879 -3.48943
64 1 54.5066 52.4431 46.8 1.83507 -14.4235 -2.68882e-17
65 2 54.5066 53.0742 47.6924 0.24094 1.58879 -3.48943
66 2 54.5066 53.0742 45.9076 0.24094 1.58879 3.48943
67 0 55.76 51.5569 46.8 -6.73493 8.54695 -1.24033e-16
68 2 55.76 50.9258 47.6924 2.97771 -0.208779 -2.56438
69 2 55.76 50.9258 45.9076 2.97771 -0.208779 2.56438
70 2 56.6524 52.1879 46.8 0.138465 -3.80159 1.95156e-18
71 0 52.0 57.6431 46.8 6.73493 -8.54695 1.79978e-16
72 2 52.0 58.2742 47.6924 -2.97771 0.208779 -2.56438
73 2 52.0 58.2742 45.9076 -2.97771 0.208779 2.56438
74 2 51.1076 57.0121 46.8 -0.138465 3.80159 -2.59666e-17
75 1 53.2533 56.7569 46.8 -1.83507 14.4235 4.19044e-17
76 2 53.2533 56.1258 45.9076 -0.24094 -1.58879 3.48943
77 2 53.2533 56.1258 47.6924 -0.24094 -1.58879 -3.48943
78 1 54.5066 57.6431 46.8 1.83507 -14.4235 -1.15684e-16
79 2 54.5066 58.2742 47.6924 0.24094 1.58879 -3.48943
80 2 54.5066 58.2742 45.9076 0.24094 1.58879 3.48943
81 0 55.76 56.7569 46.8 -6.73493 8.54695 2.32236e-16
82 2 55.76 56.1258 47.6924 2.97771 -0.208779 -2.56438
83 2 55.76 56.1258 45.9076 2.97771 -0.208779 2.56438
84 2 56.6524 57.3879 46.8 0.138465 -3.80159 -6.50521e-19
85 0 52.0 42.0431 52.0 6.73493 -8.54695 0.0
86 2 52.0 42.6742 52.8924 -2.97771 0.208779 -2.56438
87 2 52.0 42.6742 51.1076 -2.97771 0.208779 2.56438
88 2 51.1076 41.4121 52.0 -0.138465 3.80159 0.0
89 1 53.2533 41.1569 52.0 -1.83507 14.4235 1.15603e-16
90 2 53.2533 40.5258 51.1076 -0.24094 -1.58879 3.48943
91 2 53.2533 40.5258 52.8924 -0.24094 -1.58879 -3.48943
92 1 54.5066 42.0431 52.0 1.83507 -14.4235 -1.60896e-16
93 2 54.5066 42.6742 52.8924 0.24094 1.58879 -3.48943
94 2 54.5066 42.6742 51.1076 0.24094 1.58879 3.48943
95 0 55.76 41.1569 52.0 -6.73493 8.54695 -2.52402e-16
96 2 55.76 40.5258 52.8924 2.97771 -0.208779 -2.56438
97 2 55.76 40.5258 51.1076 2.97771 -0.208779 2.56438
98 2 56.6524 41.7879 52.0 0.138465 -3.80159 5.55112e-17
99 0 41.6 47.2431 52.0 6.73493 -8.54695 0.0
100 2 41.6 47.8742 52.8924 -2.97771 0.208779 -2.56438
101 2 41.6 47.8742 51.1076 -2.97771 0.208779 2.56438
102 2 40.7076 46.6121 52.0 -0.138465 3.80159 0.0
103 1 42.8533 46.3569 52.0 -1.83507 14.4235 2.22045e-16
104 2 42.8533 45.7258 51.1076 -0.24094 -1.58879 3.48943
105 2 42.8533 45.7258 52.8924 -0.24094 -1.58879 -3.48943
106 1 44.1066 47.2431 52.0 1.83507 -14.4235 0.0
107 2 44.1066 47.8742 52.8924 0.24094 1.58879 -3.48943
108 2 44.1066 47.8742 51.1076 0.24094 1.58879 3.48943
109 0 45.36 46.3569 52.0 -6.73493 8.54695 0.0
110 2 45.36 45.7258 52.8924 2.97771 -0.208779 -2.56438
111 2 45.36 45.7258 51.1076 2.97771 -0.208779 2.56438
112 2 46.2524 46.9879 52.0 0.138465 -3.80159 0.0
113 0 52.0 47.2431 52.0 6.73493 -8.54695 0.0
114 2 52.0 47.8742 52.8924 -2.97771 0.208779 -2.56438
115 2 52.0 47.8742 51.1076 -2.97771 0.208779 2.56438
116 2 51.1076 46.6121 52.0 -0.138465 3.80159 0.0
117 1 53.2533 46.3569 52.0 -1.83507 14.4235 1.39428e-16
118 2 53.2533 45.7258 51.1076 -0.24094 -1.58879 3.48943
119 2 53.2533 45.7258 52.8924 -0.24094 -1.58879 -3.48943
120 1 54.5066 47.2431 52.0 1.83507 -14.4235 2.77556e-17
121 2 54.5066 47.8742 52.8924 0.24094 1.58879 -3.48943
122 2 54.5066 47.8742 51.1076 0.24094 1.58879 3.48943
123 0 55.76 46.3569 52.0 -6.73493 8.54695 1.35308e-16
124 2 55.76 45.7258 52.8924 2.97771 -0.208779 -2.56438
125 2 55.76 45.7258 51.1076 2.97771 -0.208779 2.56438
126 2 56.6524 46.9879 52.0 0.138465 -3.80159 -3.90313e-17
127 0 41.6 52.4431 52.0 6.73493 -8.54695 0.0
128 2 41.6 53.0742 52.8924 -2.97771 0.208779 -2.56438
129 2 41.6 53.0742 51.1076 -2.97771 0.208779 2.56438
130 2 40.7076 51.8121 52.0 -0.138465 3.80159 0.0
131 1 42.8533 51.5569 52.0 -1.83507 14.4235 2.22045e-16
132 2 42.8533 50.9258 51.1076 -0.24094 -1.58879 3.48943
133 2 42.8533 50.9258 52.8924 -0.24094 -1.58879 -3.48943
134 1 44.1066 52.4431 52.0 1.83507 -14.4235 0.0
135 2 44.1066 53.0742 52.8924 0.24094 1.58879 -3.48943
136 2 44.1066 53.0742 51.1076 0.24094 1.58879 3.48943
137 0 45.36 51.5569 52.0 -6.73493 8.54695 0.0
138 2 45.36 50.9258 52.8924 2.97771 -0.208779 -2.56438
139 2 45.36 50.9258 51.1076 2.97771 -0.208779 2.56438
140 2 46.2524 52.1879 52.0 0.138465 -3.80159 0.0
141 0 52.0 52.4431 52.0 6.73493 -8.54695 0.0
142 2 52.0 53.0742 52.8924 -2.97771 0.208779 -2.56438
143 2 52.0 53.0742 51.1076 -2.97771 0.208779 2.56438
144 2 51.1076 51.8121 52.0 -0.138465 3.80159 0.0
145 1 53.2533 51.5569 52.0 -1.83507 14.4235 1.39428e-16
146 2 53.2533 50.9258 51.1076 -0.24094 -1.58879 3.48943
147 2 53.2533 50.9258 52.8924 -0.24094 -1.58879 -3.48943
148 1 54.5066 52.4431 52.0 1.83507 -14.4235 -1.1189e-16
149 2 54.5066 53.0742 52.8924 0.24094 1.58879 -3.48943
150 2 54.5066 53.0742 51.1076 0.24094 1.58879 3.48943
151 0 55.76 51.5569 52.0 -6.73493 8.54695 1.9082e-17
152 2 55.76 50.9258 52.8924 2.97771 -0.208779 -2.56438
153 2 55.76 50.9258 51.1076 2.97771 -0.208779 2.56438
154 2 56.6524 52.1879 52.0 0.138465 -3.80159 -7.97973e-17
155 0 41.6 57.6431 52.0 6.73493 -8.54695 3.21791e-16
156 2 41.6 58.2742 52.8924 -2.97771 0.208779 -2.56438
157 2 41.6 58.2742 51.1076 -2.97771 0.208779 2.56438
158 2 40.7076 57.0121 52.0 -0.138465 3.80159 4.33681e-18
159 1 42.8533 56.7569 52.0 -1.83507 14.4235 1.43982e-16
160 2 42.8533 56.1258 51.1076 -0.24094 -1.58879 3.48943
161 2 42.8533 56.1258 52.8924 -0.24094 -1.58879 -3.48943
162 1 44.1066 57.6431 52.0 1.83507 -14.4235 -2.32019e-16
163 2 44.1066 58.2742 52.8924 0.24094 1.58879 -3.48943
164 2 44.1066 58.2742 51.1076 0.24094 1.58879 3.48943
165 0 45.36 56.7569 52.0 -6.73493 8.54695 6.245e-17
166 2 45.36 56.1258 52.8924 2.97771 -0.208779 -2.56438
167 2 45.36 56.1258 51.1076 2.97771 -0.208779 2.56438
168 2 46.2524 57.3879 52.0 0.138465 -3.80159 -2.86229e-17
169 0 52.0 57.6431 52.0 6.73493 -8.54695 3.21791e-16
170 2 52.0 58.2742 52.8924 -2.97771 0.208779 -2.56438
171 2 52.0 58.2742 51.1076 -2.97771 0.208779 2.56438
172 2 51.1076 57.0121 52.0 -0.138465 3.80159 4.33681e-18
173 1 53.2533 56.7569 52.0 -1.83507 14.4235 2.59585e-16
174 2 53.2533 56.1258 51.1076 -0.24094 -1.58879 3.48943
175 2 53.2533 56.1258 52.8924 -0.24094 -1.58879 -3.48943
176 1 54.5066 57.6431 52.0 1.83507 -14.4235 -9.97466e-17
177 2 54.5066 58.2742 52.8924 0.24094 1.58879 -3.48943
178 2 54.5066 58.2742 51.1076 0.24094 1.58879 3.48943
179 0 55.76 56.7569 52.0 -6.73493 8.54695 1.71738e-16
180 2 55.76 56.1258 52.8924 2.97771 -0.208779 -2.56438
181 2 55.76 56.1258 51.1076 2.97771 -0.208779 2.56438
182 2 56.6524 57.3879 52.0 0.138465 -3.80159 -3.68629e-17
183 0 52.0 47.2431 57.2 6.73493 -8.54695 1.81344e-15
184 2 52.0 47.8742 58.0924 -2.97771 0.208779 -2.56438
185 2 52.0 47.8742 56.3076 -2.97771 0.208779 2.56438
186 2 51.1076 46.6121 57.2 -0.138465 3.80159 4.44089e-16
187 1 53.2533 46.3569 57.2 -1.83507 14.4235 2.29742e-15
188 2 53.2533 45.7258 56.3076 -0.24094 -1.58879 3.48943
189 2 53.2533 45.7258 58.0924 -0.24094 -1.58879 -3.48943
190 1 54.5066 47.2431 57.2 1.83507 -14.4235 2.21741e-15
191 2 54.5066 47.8742 58.0924 0.24094 1.58879 -3.48943
192 2 54.5066 47.8742 56.3076 0.24094 1.58879 3.48943
193 0 55.76 46.3569 57.2 -6.73493 8.54695 2.03483e-15
194 2 55.76 45.7258 58.0924 2.97771 -0.208779 -2.56438
195 2 55.76 45.7258 56.3076 2.97771 -0.208779 2.56438
196 2 56.6524 46.9879 57.2 0.138465 -3.80159 2.83627e-16
197 0 41.6 52.4431 57.2 6.73493 -8.54695 1.60028e-15
198 2 41.6 53.0742 58.0924 -2.97771 0.208779 -2.56438
199 2 41.6 53.0742 56.3076 -2.97771 0.208779 2.56438
200 2 40.7076 51.8121 57.2 -0.138465 3.80159 4.44089e-16
201 1 42.8533 51.5569 57.2 -1.83507 14.4235 2.22045e-15
202 2 42.8533 50.9258 56.3076 -0.24094 -1.58879 3.48943
203 2 42.8533 50.9258 58.0924 -0.24094 -1.58879 -3.48943
204 1 44.1066 52.4431 57.2 1.83507 -14.4235 2.09327e-15
205 2 44.1066 53.0742 58.0924 0.24094 1.58879 -3.48943
206 2 44.1066 53.0742 56.3076 0.24094 1.58879 3.48943
207 0 45.36 51.5569 57.2 -6.73493 8.54695 1.77636e-15
208 2 45.36 50.9258 58.0924 2.97771 -0.208779 -2.56438
209 2 45.36 50.9258 56.3076 2.97771 -0.208779 2.56438
210 2 46.2524 52.1879 57.2 0.138465 -3.80159 4.26823e-16
211 0 52.0 52.4431 57.2 6.73493 -8.54695 2.08145e-15
212 2 52.0 53.0742 58.0924 -2.97771 0.208779 -2.56438
213 2 52.0 53.0742 56.3076 -2.97771 0.208779 2.56438
214 2 51.1076 51.8121 57.2 -0.138465 3.80159 4.44089e-16
215 1 53.2533 51.5569 57.2 -1.83507 14.4235 2.29742e-15
216 2 53.2533 50.9258 56.3076 -0.24094 -1.58879 3.48943
217 2 53.2533 50.9258 58.0924 -0.24094 -1.58879 -3.48943
218 1 54.5066 52.4431 57.2 1.83507 -14.4235 2.15019e-15
219 2 54.5066 53.0742 58.0924 0.24094 1.58879 -3.48943
220 2 54.5066 53.0742 56.3076 0.24094 1.58879 3.48943
221 0 55.76 51.5569 57.2 -6.73493 8.54695 1.63845e-15
222 2 55.76 50.9258 58.0924 2.97771 -0.208779 -2.56438
223 2 55.76 50.9258 56.3076 2.97771 -0.208779 2.56438
224 2 56.6524 52.1879 57.2 0.138465 -3.80159 4.48426e-16
Energy
-17.907027200000005
END_CFG

