ITEM: TIMESTEP
0
ITEM: NUMBER OF ATOMS
12096
ITEM: BOX BOUNDS pp pp pp
0.0000000000000000e+00 6.2399999999999999e+01
0.0000000000000000e+00 6.2399999999999999e+01
0.0000000000000000e+00 6.2399999999999999e+01
ITEM: ATOMS id type mass x y z fx fy fz c_pe
1 1 12.011 0 0.443116 0 6.73493 -8.54695 -9.18498e-13 -0.111988
2 3 1.008 0 1.07416 0.892431 -2.97771 0.208779 -2.56438 -0.0753471
3 3 1.008 0 1.07416 61.5076 -2.97771 0.208779 2.56438 -0.0753471
4 3 1.008 61.5076 62.2121 0 -0.138465 3.80159 3.24601e-14 -0.0316171
5 2 12.011 1.25332 61.9569 5.42661e-17 -1.83507 14.4235 -1.00565e-12 -0.0845711
6 3 1.008 1.25332 61.3258 61.5076 -0.24094 -1.58879 3.48943 -0.0903621
7 3 1.008 1.25332 61.3258 0.892431 -0.24094 -1.58879 -3.48943 -0.0903621
8 2 12.011 2.50664 0.443116 0 1.83507 -14.4235 -8.71287e-13 -0.0845711
9 3 1.008 2.50664 1.07416 0.892431 0.24094 1.58879 -3.48943 -0.0903621
10 3 1.008 2.50664 1.07416 61.5076 0.24094 1.58879 3.48943 -0.0903621
11 1 12.011 3.75997 61.9569 0 -6.73493 8.54695 -1.04097e-12 -0.111988
12 3 1.008 3.75997 61.3258 0.892431 2.97771 -0.208779 -2.56438 -0.0753471
13 3 1.008 3.75997 61.3258 61.5076 2.97771 -0.208779 2.56438 -0.0753471
14 3 1.008 4.6524 0.187928 0 0.138465 -3.80159 2.10033e-14 -0.0316171
15 1 12.011 10.4 0.443116 0 6.73493 -8.54695 -9.16656e-13 -0.111988
16 3 1.008 10.4 1.07416 0.892431 -2.97771 0.208779 -2.56438 -0.0753471
17 3 1.008 10.4 1.07416 61.5076 -2.97771 0.208779 2.56438 -0.0753471
18 3 1.008 9.50757 62.2121 0 -0.138465 3.80159 2.0662e-14 -0.0316171
19 2 12.011 11.6533 61.9569 5.42661e-17 -1.83507 14.4235 -1.00861e-12 -0.0845711
20 3 1.008 11.6533 61.3258 61.5076 -0.24094 -1.58879 3.48943 -0.0903621
21 3 1.008 11.6533 61.3258 0.892431 -0.24094 -1.58879 -3.48943 -0.0903621
22 2 12.011 12.9066 0.443116 0 1.83507 -14.4235 -8.86041e-13 -0.0845711
23 3 1.008 12.9066 1.07416 0.892431 0.24094 1.58879 -3.48943 -0.0903621
24 3 1.008 12.9066 1.07416 61.5076 0.24094 1.58879 3.48943 -0.0903621
25 1 12.011 14.16 61.9569 0 -6.73493 8.54695 -1.03292e-12 -0.111988
26 3 1.008 14.16 61.3258 0.892431 2.97771 -0.208779 -2.56438 -0.0753471
27 3 1.008 14.16 61.3258 61.5076 2.97771 -0.208779 2.56438 -0.0753471
28 3 1.008 15.0524 0.187928 0 0.138465 -3.80159 3.24133e-14 -0.0316171
29 1 12.011 20.8 0.443116 0 6.73493 -8.54695 -9.16447e-13 -0.111988
30 3 1.008 20.8 1.07416 0.892431 -2.97771 0.208779 -2.56438 -0.0753471
31 3 1.008 20.8 1.07416 61.5076 -2.97771 0.208779 2.56438 -0.0753471
32 3 1.008 19.9076 62.2121 0 -0.138465 3.80159 2.04906e-14 -0.0316171
33 2 12.011 22.0533 61.9569 5.42661e-17 -1.83507 14.4235 -9.8653e-13 -0.0845711
34 3 1.008 22.0533 61.3258 61.5076 -0.24094 -1.58879 3.48943 -0.0903621
35 3 1.008 22.0533 61.3258 0.892431 -0.24094 -1.58879 -3.48943 -0.0903621
36 2 12.011 23.3066 0.443116 0 1.83507 -14.4235 -9.00183e-13 -0.0845711
37 3 1.008 23.3066 1.07416 0.892431 0.24094 1.58879 -3.48943 -0.0903621
38 3 1.008 23.3066 1.07416 61.5076 0.24094 1.58879 3.48943 -0.0903621
39 1 12.011 24.56 61.9569 0 -6.73493 8.54695 -1.04541e-12 -0.111988
40 3 1.008 24.56 61.3258 0.892431 2.97771 -0.208779 -2.56438 -0.0753471
41 3 1.008 24.56 61.3258 61.5076 2.97771 -0.208779 2.56438 -0.0753471
42 3 1.008 25.4524 0.187928 0 0.138465 -3.80159 3.22017e-14 -0.0316171
43 1 12.011 31.2 0.443116 0 6.73493 -8.54695 -9.1635e-13 -0.111988
44 3 1.008 31.2 1.07416 0.892431 -2.97771 0.208779 -2.56438 -0.0753471
45 3 1.008 31.2 1.07416 61.5076 -2.97771 0.208779 2.56438 -0.0753471
46 3 1.008 30.3076 62.2121 0 -0.138465 3.80159 2.04836e-14 -0.0316171
47 2 12.011 32.4533 61.9569 5.42661e-17 -1.83507 14.4235 -9.86974e-13 -0.0845711
48 3 1.008 32.4533 61.3258 61.5076 -0.24094 -1.58879 3.48943 -0.0903621
49 3 1.008 32.4533 61.3258 0.892431 -0.24094 -1.58879 -3.48943 -0.0903621
50 2 12.011 33.7066 0.443116 0 1.83507 -14.4235 -9.08426e-13 -0.0845711
51 3 1.008 33.7066 1.07416 0.892431 0.24094 1.58879 -3.48943 -0.0903621
52 3 1.008 33.7066 1.07416 61.5076 0.24094 1.58879 3.48943 -0.0903621
53 1 12.011 34.96 61.9569 0 -6.73493 8.54695 -1.03322e-12 -0.111988
54 3 1.008 34.96 61.3258 0.892431 2.97771 -0.208779 -2.56438 -0.0753471
55 3 1.008 34.96 61.3258 61.5076 2.97771 -0.208779 2.56438 -0.0753471
56 3 1.008 35.8524 0.187928 0 0.138465 -3.80159 3.24567e-14 -0.0316171
57 1 12.011 41.6 0.443116 0 6.73493 -8.54695 -9.32407e-13 -0.111988
58 3 1.008 41.6 1.07416 0.892431 -2.97771 0.208779 -2.56438 -0.0753471
59 3 1.008 41.6 1.07416 61.5076 -2.97771 0.208779 2.56438 -0.0753471
60 3 1.008 40.7076 62.2121 0 -0.138465 3.80159 3.24272e-14 -0.0316171
61 2 12.011 42.8533 61.9569 5.42661e-17 -1.83507 14.4235 -9.86641e-13 -0.0845711
62 3 1.008 42.8533 61.3258 61.5076 -0.24094 -1.58879 3.48943 -0.0903621
63 3 1.008 42.8533 61.3258 0.892431 -0.24094 -1.58879 -3.48943 -0.0903621
64 2 12.011 44.1066 0.443116 0 1.83507 -14.4235 -9.08426e-13 -0.0845711
65 3 1.008 44.1066 1.07416 0.892431 0.24094 1.58879 -3.48943 -0.0903621
66 3 1.008 44.1066 1.07416 61.5076 0.24094 1.58879 3.48943 -0.0903621
67 1 12.011 45.36 61.9569 0 -6.73493 8.54695 -1.03298e-12 -0.111988
68 3 1.008 45.36 61.3258 0.892431 2.97771 -0.208779 -2.56438 -0.0753471
69 3 1.008 45.36 61.3258 61.5076 2.97771 -0.208779 2.56438 -0.0753471
70 3 1.008 46.2524 0.187928 0 0.138465 -3.80159 3.24497e-14 -0.0316171
71 1 12.011 52 0.443116 0 6.73493 -8.54695 -9.32426e-13 -0.111988
72 3 1.008 52 1.07416 0.892431 -2.97771 0.208779 -2.56438 -0.0753471
73 3 1.008 52 1.07416 61.5076 -2.97771 0.208779 2.56438 -0.0753471
74 3 1.008 51.1076 62.2121 0 -0.138465 3.80159 3.24293e-14 -0.0316171
75 2 12.011 53.2533 61.9569 5.42661e-17 -1.83507 14.4235 -9.86408e-13 -0.0845711
76 3 1.008 53.2533 61.3258 61.5076 -0.24094 -1.58879 3.48943 -0.0903621
77 3 1.008 53.2533 61.3258 0.892431 -0.24094 -1.58879 -3.48943 -0.0903621
78 2 12.011 54.5066 0.443116 0 1.83507 -14.4235 -9.08523e-13 -0.0845711
79 3 1.008 54.5066 1.07416 0.892431 0.24094 1.58879 -3.48943 -0.0903621
80 3 1.008 54.5066 1.07416 61.5076 0.24094 1.58879 3.48943 -0.0903621
81 1 12.011 55.76 61.9569 0 -6.73493 8.54695 -1.03303e-12 -0.111988
82 3 1.008 55.76 61.3258 0.892431 2.97771 -0.208779 -2.56438 -0.0753471
83 3 1.008 55.76 61.3258 61.5076 2.97771 -0.208779 2.56438 -0.0753471
84 3 1.008 56.6524 0.187928 0 0.138465 -3.80159 3.25011e-14 -0.0316171
85 1 12.011 0 5.64312 0 6.73493 -8.54695 -1.04211e-12 -0.111988
86 3 1.008 0 6.27416 0.892431 -2.97771 0.208779 -2.56438 -0.0753471
87 3 1.008 0 6.27416 61.5076 -2.97771 0.208779 2.56438 -0.0753471
88 3 1.008 61.5076 5.01207 0 -0.138465 3.80159 3.24567e-14 -0.0316171
89 2 12.011 1.25332 4.75688 5.42661e-17 -1.83507 14.4235 -8.82292e-13 -0.0845711
90 3 1.008 1.25332 4.12584 61.5076 -0.24094 -1.58879 3.48943 -0.0903621
91 3 1.008 1.25332 4.12584 0.892431 -0.24094 -1.58879 -3.48943 -0.0903621
92 2 12.011 2.50664 5.64312 0 1.83507 -14.4235 -1.00413e-12 -0.0845711
93 3 1.008 2.50664 6.27416 0.892431 0.24094 1.58879 -3.48943 -0.0903621
94 3 1.008 2.50664 6.27416 61.5076 0.24094 1.58879 3.48943 -0.0903621
95 1 12.011 3.75997 4.75688 0 -6.73493 8.54695 -1.02669e-12 -0.111988
96 3 1.008 3.75997 4.12584 0.892431 2.97771 -0.208779 -2.56438 -0.0753471
97 3 1.008 3.75997 4.12584 61.5076 2.97771 -0.208779 2.56438 -0.0753471
98 3 1.008 4.6524 5.38793 0 0.138465 -3.80159 2.07517e-14 -0.0316171
99 1 12.011 10.4 5.64312 0 6.73493 -8.54695 -1.05594e-12 -0.111988
100 3 1.008 10.4 6.27416 0.892431 -2.97771 0.208779 -2.56438 -0.0753471
101 3 1.008 10.4 6.27416 61.5076 -2.97771 0.208779 2.56438 -0.0753471
102 3 1.008 9.50757 5.01207 0 -0.138465 3.80159 3.22369e-14 -0.0316171
103 2 12.011 11.6533 4.75688 5.42661e-17 -1.83507 14.4235 -8.73092e-13 -0.0845711
104 3 1.008 11.6533 4.12584 61.5076 -0.24094 -1.58879 3.48943 -0.0903621
105 3 1.008 11.6533 4.12584 0.892431 -0.24094 -1.58879 -3.48943 -0.0903621
106 2 12.011 12.9066 5.64312 0 1.83507 -14.4235 -1.00852e-12 -0.0845711
107 3 1.008 12.9066 6.27416 0.892431 0.24094 1.58879 -3.48943 -0.0903621
108 3 1.008 12.9066 6.27416 61.5076 0.24094 1.58879 3.48943 -0.0903621
109 1 12.011 14.16 4.75688 0 -6.73493 8.54695 -1.0467e-12 -0.111988
110 3 1.008 14.16 4.12584 0.892431 2.97771 -0.208779 -2.56438 -0.0753471
111 3 1.008 14.16 4.12584 61.5076 2.97771 -0.208779 2.56438 -0.0753471
112 3 1.008 15.0524 5.38793 0 0.138465 -3.80159 3.18815e-14 -0.0316171
113 1 12.011 20.8 5.64312 0 6.73493 -8.54695 -1.05607e-12 -0.111988
114 3 1.008 20.8 6.27416 0.892431 -2.97771 0.208779 -2.56438 -0.0753471
115 3 1.008 20.8 6.27416 61.5076 -2.97771 0.208779 2.56438 -0.0753471
116 3 1.008 19.9076 5.01207 0 -0.138465 3.80159 3.28668e-14 -0.0316171
117 2 12.011 22.0533 4.75688 5.42661e-17 -1.83507 14.4235 -8.64269e-13 -0.0845711
118 3 1.008 22.0533 4.12584 61.5076 -0.24094 -1.58879 3.48943 -0.0903621
119 3 1.008 22.0533 4.12584 0.892431 -0.24094 -1.58879 -3.48943 -0.0903621
120 2 12.011 23.3066 5.64312 0 1.83507 -14.4235 -1.02193e-12 -0.0845711
121 3 1.008 23.3066 6.27416 0.892431 0.24094 1.58879 -3.48943 -0.0903621
122 3 1.008 23.3066 6.27416 61.5076 0.24094 1.58879 3.48943 -0.0903621
123 1 12.011 24.56 4.75688 0 -6.73493 8.54695 -1.04787e-12 -0.111988
124 3 1.008 24.56 4.12584 0.892431 2.97771 -0.208779 -2.56438 -0.0753471
125 3 1.008 24.56 4.12584 61.5076 2.97771 -0.208779 2.56438 -0.0753471
126 3 1.008 25.4524 5.38793 0 0.138465 -3.80159 3.30711e-14 -0.0316171
127 1 12.011 31.2 5.64312 0 6.73493 -8.54695 -1.05605e-12 -0.111988
128 3 1.008 31.2 6.27416 0.892431 -2.97771 0.208779 -2.56438 -0.0753471
129 3 1.008 31.2 6.27416 61.5076 -2.97771 0.208779 2.56438 -0.0753471
130 3 1.008 30.3076 5.01207 0 -0.138465 3.80159 3.28809e-14 -0.0316171
131 2 12.011 32.4533 4.75688 5.42661e-17 -1.83507 14.4235 -8.64127e-13 -0.0845711
132 3 1.008 32.4533 4.12584 61.5076 -0.24094 -1.58879 3.48943 -0.0903621
133 3 1.008 32.4533 4.12584 0.892431 -0.24094 -1.58879 -3.48943 -0.0903621
134 2 12.011 33.7066 5.64312 0 1.83507 -14.4235 -1.02171e-12 -0.0845711
135 3 1.008 33.7066 6.27416 0.892431 0.24094 1.58879 -3.48943 -0.0903621
136 3 1.008 33.7066 6.27416 61.5076 0.24094 1.58879 3.48943 -0.0903621
137 1 12.011 34.96 4.75688 0 -6.73493 8.54695 -1.04709e-12 -0.111988
138 3 1.008 34.96 4.12584 0.892431 2.97771 -0.208779 -2.56438 -0.0753471
139 3 1.008 34.96 4.12584 61.5076 2.97771 -0.208779 2.56438 -0.0753471
140 3 1.008 35.8524 5.38793 0 0.138465 -3.80159 3.25061e-14 -0.0316171
141 1 12.011 41.6 5.64312 0 6.73493 -8.54695 -1.05583e-12 -0.111988
142 3 1.008 41.6 6.27416 0.892431 -2.97771 0.208779 -2.56438 -0.0753471
143 3 1.008 41.6 6.27416 61.5076 -2.97771 0.208779 2.56438 -0.0753471
144 3 1.008 40.7076 5.01207 0 -0.138465 3.80159 3.24627e-14 -0.0316171
145 2 12.011 42.8533 4.75688 5.42661e-17 -1.83507 14.4235 -8.63933e-13 -0.0845711
146 3 1.008 42.8533 4.12584 61.5076 -0.24094 -1.58879 3.48943 -0.0903621
147 3 1.008 42.8533 4.12584 0.892431 -0.24094 -1.58879 -3.48943 -0.0903621
148 2 12.011 44.1066 5.64312 0 1.83507 -14.4235 -1.02171e-12 -0.0845711
149 3 1.008 44.1066 6.27416 0.892431 0.24094 1.58879 -3.48943 -0.0903621
150 3 1.008 44.1066 6.27416 61.5076 0.24094 1.58879 3.48943 -0.0903621
151 1 12.011 45.36 4.75688 0 -6.73493 8.54695 -1.04709e-12 -0.111988
152 3 1.008 45.36 4.12584 0.892431 2.97771 -0.208779 -2.56438 -0.0753471
153 3 1.008 45.36 4.12584 61.5076 2.97771 -0.208779 2.56438 -0.0753471
154 3 1.008 46.2524 5.38793 0 0.138465 -3.80159 3.25057e-14 -0.0316171
155 1 12.011 52 5.64312 0 6.73493 -8.54695 -1.05581e-12 -0.111988
156 3 1.008 52 6.27416 0.892431 -2.97771 0.208779 -2.56438 -0.0753471
157 3 1.008 52 6.27416 61.5076 -2.97771 0.208779 2.56438 -0.0753471
158 3 1.008 51.1076 5.01207 0 -0.138465 3.80159 3.2456e-14 -0.0316171
159 2 12.011 53.2533 4.75688 5.42661e-17 -1.83507 14.4235 -8.63917e-13 -0.0845711
160 3 1.008 53.2533 4.12584 61.5076 -0.24094 -1.58879 3.48943 -0.0903621
161 3 1.008 53.2533 4.12584 0.892431 -0.24094 -1.58879 -3.48943 -0.0903621
162 2 12.011 54.5066 5.64312 0 1.83507 -14.4235 -1.02169e-12 -0.0845711
163 3 1.008 54.5066 6.27416 0.892431 0.24094 1.58879 -3.48943 -0.0903621
164 3 1.008 54.5066 6.27416 61.5076 0.24094 1.58879 3.48943 -0.0903621
165 1 12.011 55.76 4.75688 0 -6.73493 8.54695 -1.04708e-12 -0.111988
166 3 1.008 55.76 4.12584 0.892431 2.97771 -0.208779 -2.56438 -0.0753471
167 3 1.008 55.76 4.12584 61.5076 2.97771 -0.208779 2.56438 -0.0753471
168 3 1.008 56.6524 5.38793 0 0.138465 -3.80159 3.2507e-14 -0.0316171
169 1 12.011 0 10.8431 0 6.73493 -8.54695 -1.07624e-12 -0.111988
170 3 1.008 0 11.4742 0.892431 -2.97771 0.208779 -2.56438 -0.0753471
171 3 1.008 0 11.4742 61.5076 -2.97771 0.208779 2.56438 -0.0753471
172 3 1.008 61.5076 10.2121 0 -0.138465 3.80159 3.39416e-14 -0.0316171
173 2 12.011 1.25332 9.95688 5.42661e-17 -1.83507 14.4235 -1.41851e-12 -0.0845711
174 3 1.008 1.25332 9.32584 61.5076 -0.24094 -1.58879 3.48943 -0.0903621
175 3 1.008 1.25332 9.32584 0.892431 -0.24094 -1.58879 -3.48943 -0.0903621
176 2 12.011 2.50664 10.8431 0 1.83507 -14.4235 -1.04186e-12 -0.0845711
177 3 1.008 2.50664 11.4742 0.892431 0.24094 1.58879 -3.48943 -0.0903621
178 3 1.008 2.50664 11.4742 61.5076 0.24094 1.58879 3.48943 -0.0903621
179 1 12.011 3.75997 9.95688 0 -6.73493 8.54695 -1.04699e-12 -0.111988
180 3 1.008 3.75997 9.32584 0.892431 2.97771 -0.208779 -2.56438 -0.0753471
181 3 1.008 3.75997 9.32584 61.5076 2.97771 -0.208779 2.56438 -0.0753471
182 3 1.008 4.6524 10.5879 0 0.138465 -3.80159 3.28306e-14 -0.0316171
183 1 12.011 10.4 10.8431 0 6.73493 -8.54695 -1.07322e-12 -0.111988
184 3 1.008 10.4 11.4742 0.892431 -2.97771 0.208779 -2.56438 -0.0753471
185 3 1.008 10.4 11.4742 61.5076 -2.97771 0.208779 2.56438 -0.0753471
186 3 1.008 9.50757 10.2121 0 -0.138465 3.80159 3.45449e-14 -0.0316171
187 2 12.011 11.6533 9.95688 5.42661e-17 -1.83507 14.4235 -1.40907e-12 -0.0845711
188 3 1.008 11.6533 9.32584 61.5076 -0.24094 -1.58879 3.48943 -0.0903621
189 3 1.008 11.6533 9.32584 0.892431 -0.24094 -1.58879 -3.48943 -0.0903621
190 2 12.011 12.9066 10.8431 0 1.83507 -14.4235 -1.03406e-12 -0.0845711
191 3 1.008 12.9066 11.4742 0.892431 0.24094 1.58879 -3.48943 -0.0903621
192 3 1.008 12.9066 11.4742 61.5076 0.24094 1.58879 3.48943 -0.0903621
193 1 12.011 14.16 9.95688 0 -6.73493 8.54695 -1.0422e-12 -0.111988
194 3 1.008 14.16 9.32584 0.892431 2.97771 -0.208779 -2.56438 -0.0753471
195 3 1.008 14.16 9.32584 61.5076 2.97771 -0.208779 2.56438 -0.0753471
196 3 1.008 15.0524 10.5879 0 0.138465 -3.80159 3.26129e-14 -0.0316171
197 1 12.011 20.8 10.8431 0 6.73493 -8.54695 -1.07245e-12 -0.111988
198 3 1.008 20.8 11.4742 0.892431 -2.97771 0.208779 -2.56438 -0.0753471
199 3 1.008 20.8 11.4742 61.5076 -2.97771 0.208779 2.56438 -0.0753471
200 3 1.008 19.9076 10.2121 0 -0.138465 3.80159 3.41114e-14 -0.0316171
201 2 12.011 22.0533 9.95688 5.42661e-17 -1.83507 14.4235 -1.40935e-12 -0.0845711
202 3 1.008 22.0533 9.32584 61.5076 -0.24094 -1.58879 3.48943 -0.0903621
203 3 1.008 22.0533 9.32584 0.892431 -0.24094 -1.58879 -3.48943 -0.0903621
204 2 12.011 23.3066 10.8431 0 1.83507 -14.4235 -1.03434e-12 -0.0845711
205 3 1.008 23.3066 11.4742 0.892431 0.24094 1.58879 -3.48943 -0.0903621
206 3 1.008 23.3066 11.4742 61.5076 0.24094 1.58879 3.48943 -0.0903621
207 1 12.011 24.56 9.95688 0 -6.73493 8.54695 -1.04192e-12 -0.111988
208 3 1.008 24.56 9.32584 0.892431 2.97771 -0.208779 -2.56438 -0.0753471
209 3 1.008 24.56 9.32584 61.5076 2.97771 -0.208779 2.56438 -0.0753471
210 3 1.008 25.4524 10.5879 0 0.138465 -3.80159 3.29806e-14 -0.0316171
211 1 12.011 31.2 10.8431 0 6.73493 -8.54695 -1.07236e-12 -0.111988
212 3 1.008 31.2 11.4742 0.892431 -2.97771 0.208779 -2.56438 -0.0753471
213 3 1.008 31.2 11.4742 61.5076 -2.97771 0.208779 2.56438 -0.0753471
214 3 1.008 30.3076 10.2121 0 -0.138465 3.80159 3.41253e-14 -0.0316171
215 2 12.011 32.4533 9.95688 5.42661e-17 -1.83507 14.4235 -1.40921e-12 -0.0845711
216 3 1.008 32.4533 9.32584 61.5076 -0.24094 -1.58879 3.48943 -0.0903621
217 3 1.008 32.4533 9.32584 0.892431 -0.24094 -1.58879 -3.48943 -0.0903621
218 2 12.011 33.7066 10.8431 0 1.83507 -14.4235 -1.03506e-12 -0.0845711
219 3 1.008 33.7066 11.4742 0.892431 0.24094 1.58879 -3.48943 -0.0903621
220 3 1.008 33.7066 11.4742 61.5076 0.24094 1.58879 3.48943 -0.0903621
221 1 12.011 34.96 9.95688 0 -6.73493 8.54695 -1.04139e-12 -0.111988
222 3 1.008 34.96 9.32584 0.892431 2.97771 -0.208779 -2.56438 -0.0753471
223 3 1.008 34.96 9.32584 61.5076 2.97771 -0.208779 2.56438 -0.0753471
224 3 1.008 35.8524 10.5879 0 0.138465 -3.80159 3.22625e-14 -0.0316171
225 1 12.011 41.6 10.8431 0 6.73493 -8.54695 -1.07236e-12 -0.111988
226 3 1.008 41.6 11.4742 0.892431 -2.97771 0.208779 -2.56438 -0.0753471
227 3 1.008 41.6 11.4742 61.5076 -2.97771 0.208779 2.56438 -0.0753471
228 3 1.008 40.7076 10.2121 0 -0.138465 3.80159 3.41877e-14 -0.0316171
229 2 12.011 42.8533 9.95688 5.42661e-17 -1.83507 14.4235 -1.40918e-12 -0.0845711
230 3 1.008 42.8533 9.32584 61.5076 -0.24094 -1.58879 3.48943 -0.0903621
231 3 1.008 42.8533 9.32584 0.892431 -0.24094 -1.58879 -3.48943 -0.0903621
232 2 12.011 44.1066 10.8431 0 1.83507 -14.4235 -1.03503e-12 -0.0845711
233 3 1.008 44.1066 11.4742 0.892431 0.24094 1.58879 -3.48943 -0.0903621
234 3 1.008 44.1066 11.4742 61.5076 0.24094 1.58879 3.48943 -0.0903621
235 1 12.011 45.36 9.95688 0 -6.73493 8.54695 -1.04139e-12 -0.111988
236 3 1.008 45.36 9.32584 0.892431 2.97771 -0.208779 -2.56438 -0.0753471
237 3 1.008 45.36 9.32584 61.5076 2.97771 -0.208779 2.56438 -0.0753471
238 3 1.008 46.2524 10.5879 0 0.138465 -3.80159 3.22625e-14 -0.0316171
239 1 12.011 52 10.8431 0 6.73493 -8.54695 -1.07244e-12 -0.111988
240 3 1.008 52 11.4742 0.892431 -2.97771 0.208779 -2.56438 -0.0753471
241 3 1.008 52 11.4742 61.5076 -2.97771 0.208779 2.56438 -0.0753471
242 3 1.008 51.1076 10.2121 0 -0.138465 3.80159 3.42494e-14 -0.0316171
243 2 12.011 53.2533 9.95688 5.42661e-17 -1.83507 14.4235 -1.40921e-12 -0.0845711
244 3 1.008 53.2533 9.32584 61.5076 -0.24094 -1.58879 3.48943 -0.0903621
245 3 1.008 53.2533 9.32584 0.892431 -0.24094 -1.58879 -3.48943 -0.0903621
246 2 12.011 54.5066 10.8431 0 1.83507 -14.4235 -1.0351e-12 -0.0845711
247 3 1.008 54.5066 11.4742 0.892431 0.24094 1.58879 -3.48943 -0.0903621
248 3 1.008 54.5066 11.4742 61.5076 0.24094 1.58879 3.48943 -0.0903621
249 1 12.011 55.76 9.95688 0 -6.73493 8.54695 -1.04127e-12 -0.111988
250 3 1.008 55.76 9.32584 0.892431 2.97771 -0.208779 -2.56438 -0.0753471
251 3 1.008 55.76 9.32584 61.5076 2.97771 -0.208779 2.56438 -0.0753471
252 3 1.008 56.6524 10.5879 0 0.138465 -3.80159 3.24009e-14 -0.0316171
253 1 12.011 0 16.0431 0 6.73493 -8.54695 -1.04588e-12 -0.111988
254 3 1.008 0 16.6742 0.892431 -2.97771 0.208779 -2.56438 -0.0753471
255 3 1.008 0 16.6742 61.5076 -2.97771 0.208779 2.56438 -0.0753471
256 3 1.008 61.5076 15.4121 0 -0.138465 3.80159 3.18703e-14 -0.0316171
257 2 12.011 1.25332 15.1569 5.42661e-17 -1.83507 14.4235 -1.01461e-12 -0.0845711
258 3 1.008 1.25332 14.5258 61.5076 -0.24094 -1.58879 3.48943 -0.0903621
259 3 1.008 1.25332 14.5258 0.892431 -0.24094 -1.58879 -3.48943 -0.0903621
260 2 12.011 2.50664 16.0431 0 1.83507 -14.4235 -1.0124e-12 -0.0845711
261 3 1.008 2.50664 16.6742 0.892431 0.24094 1.58879 -3.48943 -0.0903621
262 3 1.008 2.50664 16.6742 61.5076 0.24094 1.58879 3.48943 -0.0903621
263 1 12.011 3.75997 15.1569 0 -6.73493 8.54695 -1.04785e-12 -0.111988
264 3 1.008 3.75997 14.5258 0.892431 2.97771 -0.208779 -2.56438 -0.0753471
265 3 1.008 3.75997 14.5258 61.5076 2.97771 -0.208779 2.56438 -0.0753471
266 3 1.008 4.6524 15.7879 0 0.138465 -3.80159 3.29693e-14 -0.0316171
267 1 12.011 10.4 16.0431 0 6.73493 -8.54695 -1.04275e-12 -0.111988
268 3 1.008 10.4 16.6742 0.892431 -2.97771 0.208779 -2.56438 -0.0753471
269 3 1.008 10.4 16.6742 61.5076 -2.97771 0.208779 2.56438 -0.0753471
270 3 1.008 9.50757 15.4121 0 -0.138465 3.80159 3.27375e-14 -0.0316171
271 2 12.011 11.6533 15.1569 5.42661e-17 -1.83507 14.4235 -1.00561e-12 -0.0845711
272 3 1.008 11.6533 14.5258 61.5076 -0.24094 -1.58879 3.48943 -0.0903621
273 3 1.008 11.6533 14.5258 0.892431 -0.24094 -1.58879 -3.48943 -0.0903621
274 2 12.011 12.9066 16.0431 0 1.83507 -14.4235 -1.00467e-12 -0.0845711
275 3 1.008 12.9066 16.6742 0.892431 0.24094 1.58879 -3.48943 -0.0903621
276 3 1.008 12.9066 16.6742 61.5076 0.24094 1.58879 3.48943 -0.0903621
277 1 12.011 14.16 15.1569 0 -6.73493 8.54695 -1.04322e-12 -0.111988
278 3 1.008 14.16 14.5258 0.892431 2.97771 -0.208779 -2.56438 -0.0753471
279 3 1.008 14.16 14.5258 61.5076 2.97771 -0.208779 2.56438 -0.0753471
280 3 1.008 15.0524 15.7879 0 0.138465 -3.80159 3.27516e-14 -0.0316171
281 1 12.011 20.8 16.0431 0 6.73493 -8.54695 -1.0425e-12 -0.111988
282 3 1.008 20.8 16.6742 0.892431 -2.97771 0.208779 -2.56438 -0.0753471
283 3 1.008 20.8 16.6742 61.5076 -2.97771 0.208779 2.56438 -0.0753471
284 3 1.008 19.9076 15.4121 0 -0.138465 3.80159 3.26891e-14 -0.0316171
285 2 12.011 22.0533 15.1569 5.42661e-17 -1.83507 14.4235 -1.00592e-12 -0.0845711
286 3 1.008 22.0533 14.5258 61.5076 -0.24094 -1.58879 3.48943 -0.0903621
287 3 1.008 22.0533 14.5258 0.892431 -0.24094 -1.58879 -3.48943 -0.0903621
288 2 12.011 23.3066 16.0431 0 1.83507 -14.4235 -1.00484e-12 -0.0845711
289 3 1.008 23.3066 16.6742 0.892431 0.24094 1.58879 -3.48943 -0.0903621
290 3 1.008 23.3066 16.6742 61.5076 0.24094 1.58879 3.48943 -0.0903621
291 1 12.011 24.56 15.1569 0 -6.73493 8.54695 -1.043e-12 -0.111988
292 3 1.008 24.56 14.5258 0.892431 2.97771 -0.208779 -2.56438 -0.0753471
293 3 1.008 24.56 14.5258 61.5076 2.97771 -0.208779 2.56438 -0.0753471
294 3 1.008 25.4524 15.7879 0 0.138465 -3.80159 3.28938e-14 -0.0316171
295 1 12.011 31.2 16.0431 0 6.73493 -8.54695 -1.04244e-12 -0.111988
296 3 1.008 31.2 16.6742 0.892431 -2.97771 0.208779 -2.56438 -0.0753471
297 3 1.008 31.2 16.6742 61.5076 -2.97771 0.208779 2.56438 -0.0753471
298 3 1.008 30.3076 15.4121 0 -0.138465 3.80159 3.26995e-14 -0.0316171
299 2 12.011 32.4533 15.1569 5.42661e-17 -1.83507 14.4235 -1.00597e-12 -0.0845711
300 3 1.008 32.4533 14.5258 61.5076 -0.24094 -1.58879 3.48943 -0.0903621
301 3 1.008 32.4533 14.5258 0.892431 -0.24094 -1.58879 -3.48943 -0.0903621
302 2 12.011 33.7066 16.0431 0 1.83507 -14.4235 -1.00531e-12 -0.0845711
303 3 1.008 33.7066 16.6742 0.892431 0.24094 1.58879 -3.48943 -0.0903621
304 3 1.008 33.7066 16.6742 61.5076 0.24094 1.58879 3.48943 -0.0903621
305 1 12.011 34.96 15.1569 0 -6.73493 8.54695 -1.04239e-12 -0.111988
306 3 1.008 34.96 14.5258 0.892431 2.97771 -0.208779 -2.56438 -0.0753471
307 3 1.008 34.96 14.5258 61.5076 2.97771 -0.208779 2.56438 -0.0753471
308 3 1.008 35.8524 15.7879 0 0.138465 -3.80159 3.24116e-14 -0.0316171
309 1 12.011 41.6 16.0431 0 6.73493 -8.54695 -1.04192e-12 -0.111988
310 3 1.008 41.6 16.6742 0.892431 -2.97771 0.208779 -2.56438 -0.0753471
311 3 1.008 41.6 16.6742 61.5076 -2.97771 0.208779 2.56438 -0.0753471
312 3 1.008 40.7076 15.4121 0 -0.138465 3.80159 3.23769e-14 -0.0316171
313 2 12.011 42.8533 15.1569 5.42661e-17 -1.83507 14.4235 -1.00631e-12 -0.0845711
314 3 1.008 42.8533 14.5258 61.5076 -0.24094 -1.58879 3.48943 -0.0903621
315 3 1.008 42.8533 14.5258 0.892431 -0.24094 -1.58879 -3.48943 -0.0903621
316 2 12.011 44.1066 16.0431 0 1.83507 -14.4235 -1.00528e-12 -0.0845711
317 3 1.008 44.1066 16.6742 0.892431 0.24094 1.58879 -3.48943 -0.0903621
318 3 1.008 44.1066 16.6742 61.5076 0.24094 1.58879 3.48943 -0.0903621
319 1 12.011 45.36 15.1569 0 -6.73493 8.54695 -1.04242e-12 -0.111988
320 3 1.008 45.36 14.5258 0.892431 2.97771 -0.208779 -2.56438 -0.0753471
321 3 1.008 45.36 14.5258 61.5076 2.97771 -0.208779 2.56438 -0.0753471
322 3 1.008 46.2524 15.7879 0 0.138465 -3.80159 3.24185e-14 -0.0316171
323 1 12.011 52 16.0431 0 6.73493 -8.54695 -1.04192e-12 -0.111988
324 3 1.008 52 16.6742 0.892431 -2.97771 0.208779 -2.56438 -0.0753471
325 3 1.008 52 16.6742 61.5076 -2.97771 0.208779 2.56438 -0.0753471
326 3 1.008 51.1076 15.4121 0 -0.138465 3.80159 3.23737e-14 -0.0316171
327 2 12.011 53.2533 15.1569 5.42661e-17 -1.83507 14.4235 -1.00634e-12 -0.0845711
328 3 1.008 53.2533 14.5258 61.5076 -0.24094 -1.58879 3.48943 -0.0903621
329 3 1.008 53.2533 14.5258 0.892431 -0.24094 -1.58879 -3.48943 -0.0903621
330 2 12.011 54.5066 16.0431 0 1.83507 -14.4235 -1.00488e-12 -0.0845711
331 3 1.008 54.5066 16.6742 0.892431 0.24094 1.58879 -3.48943 -0.0903621
332 3 1.008 54.5066 16.6742 61.5076 0.24094 1.58879 3.48943 -0.0903621
333 1 12.011 55.76 15.1569 0 -6.73493 8.54695 -1.04239e-12 -0.111988
334 3 1.008 55.76 14.5258 0.892431 2.97771 -0.208779 -2.56438 -0.0753471
335 3 1.008 55.76 14.5258 61.5076 2.97771 -0.208779 2.56438 -0.0753471
336 3 1.008 56.6524 15.7879 0 0.138465 -3.80159 3.22377e-14 -0.0316171
337 1 12.011 0 21.2431 0 6.73493 -8.54695 -1.04564e-12 -0.111988
338 3 1.008 0 21.8742 0.892431 -2.97771 0.208779 -2.56438 -0.0753471
339 3 1.008 0 21.8742 61.5076 -2.97771 0.208779 2.56438 -0.0753471
340 3 1.008 61.5076 20.6121 0 -0.138465 3.80159 3.20265e-14 -0.0316171
341 2 12.011 1.25332 20.3569 5.42661e-17 -1.83507 14.4235 -1.01471e-12 -0.0845711
342 3 1.008 1.25332 19.7258 61.5076 -0.24094 -1.58879 3.48943 -0.0903621
343 3 1.008 1.25332 19.7258 0.892431 -0.24094 -1.58879 -3.48943 -0.0903621
344 2 12.011 2.50664 21.2431 0 1.83507 -14.4235 -1.01238e-12 -0.0845711
345 3 1.008 2.50664 21.8742 0.892431 0.24094 1.58879 -3.48943 -0.0903621
346 3 1.008 2.50664 21.8742 61.5076 0.24094 1.58879 3.48943 -0.0903621
347 1 12.011 3.75997 20.3569 0 -6.73493 8.54695 -1.04811e-12 -0.111988
348 3 1.008 3.75997 19.7258 0.892431 2.97771 -0.208779 -2.56438 -0.0753471
349 3 1.008 3.75997 19.7258 61.5076 2.97771 -0.208779 2.56438 -0.0753471
350 3 1.008 4.6524 20.9879 0 0.138465 -3.80159 3.29008e-14 -0.0316171
351 1 12.011 10.4 21.2431 0 6.73493 -8.54695 -1.04269e-12 -0.111988
352 3 1.008 10.4 21.8742 0.892431 -2.97771 0.208779 -2.56438 -0.0753471
353 3 1.008 10.4 21.8742 61.5076 -2.97771 0.208779 2.56438 -0.0753471
354 3 1.008 9.50757 20.6121 0 -0.138465 3.80159 3.27201e-14 -0.0316171
355 2 12.011 11.6533 20.3569 5.42661e-17 -1.83507 14.4235 -1.00564e-12 -0.0845711
356 3 1.008 11.6533 19.7258 61.5076 -0.24094 -1.58879 3.48943 -0.0903621
357 3 1.008 11.6533 19.7258 0.892431 -0.24094 -1.58879 -3.48943 -0.0903621
358 2 12.011 12.9066 21.2431 0 1.83507 -14.4235 -1.00475e-12 -0.0845711
359 3 1.008 12.9066 21.8742 0.892431 0.24094 1.58879 -3.48943 -0.0903621
360 3 1.008 12.9066 21.8742 61.5076 0.24094 1.58879 3.48943 -0.0903621
361 1 12.011 14.16 20.3569 0 -6.73493 8.54695 -1.0433e-12 -0.111988
362 3 1.008 14.16 19.7258 0.892431 2.97771 -0.208779 -2.56438 -0.0753471
363 3 1.008 14.16 19.7258 61.5076 2.97771 -0.208779 2.56438 -0.0753471
364 3 1.008 15.0524 20.9879 0 0.138465 -3.80159 3.27516e-14 -0.0316171
365 1 12.011 20.8 21.2431 0 6.73493 -8.54695 -1.04244e-12 -0.111988
366 3 1.008 20.8 21.8742 0.892431 -2.97771 0.208779 -2.56438 -0.0753471
367 3 1.008 20.8 21.8742 61.5076 -2.97771 0.208779 2.56438 -0.0753471
368 3 1.008 19.9076 20.6121 0 -0.138465 3.80159 3.26787e-14 -0.0316171
369 2 12.011 22.0533 20.3569 5.42661e-17 -1.83507 14.4235 -1.00592e-12 -0.0845711
370 3 1.008 22.0533 19.7258 61.5076 -0.24094 -1.58879 3.48943 -0.0903621
371 3 1.008 22.0533 19.7258 0.892431 -0.24094 -1.58879 -3.48943 -0.0903621
372 2 12.011 23.3066 21.2431 0 1.83507 -14.4235 -1.00481e-12 -0.0845711
373 3 1.008 23.3066 21.8742 0.892431 0.24094 1.58879 -3.48943 -0.0903621
374 3 1.008 23.3066 21.8742 61.5076 0.24094 1.58879 3.48943 -0.0903621
375 1 12.011 24.56 20.3569 0 -6.73493 8.54695 -1.04305e-12 -0.111988
376 3 1.008 24.56 19.7258 0.892431 2.97771 -0.208779 -2.56438 -0.0753471
377 3 1.008 24.56 19.7258 61.5076 2.97771 -0.208779 2.56438 -0.0753471
378 3 1.008 25.4524 20.9879 0 0.138465 -3.80159 3.28904e-14 -0.0316171
379 1 12.011 31.2 21.2431 0 6.73493 -8.54695 -1.04236e-12 -0.111988
380 3 1.008 31.2 21.8742 0.892431 -2.97771 0.208779 -2.56438 -0.0753471
381 3 1.008 31.2 21.8742 61.5076 -2.97771 0.208779 2.56438 -0.0753471
382 3 1.008 30.3076 20.6121 0 -0.138465 3.80159 3.26891e-14 -0.0316171
383 2 12.011 32.4533 20.3569 5.42661e-17 -1.83507 14.4235 -1.00595e-12 -0.0845711
384 3 1.008 32.4533 19.7258 61.5076 -0.24094 -1.58879 3.48943 -0.0903621
385 3 1.008 32.4533 19.7258 0.892431 -0.24094 -1.58879 -3.48943 -0.0903621
386 2 12.011 33.7066 21.2431 0 1.83507 -14.4235 -1.00533e-12 -0.0845711
387 3 1.008 33.7066 21.8742 0.892431 0.24094 1.58879 -3.48943 -0.0903621
388 3 1.008 33.7066 21.8742 61.5076 0.24094 1.58879 3.48943 -0.0903621
389 1 12.011 34.96 20.3569 0 -6.73493 8.54695 -1.04242e-12 -0.111988
390 3 1.008 34.96 19.7258 0.892431 2.97771 -0.208779 -2.56438 -0.0753471
391 3 1.008 34.96 19.7258 61.5076 2.97771 -0.208779 2.56438 -0.0753471
392 3 1.008 35.8524 20.9879 0 0.138465 -3.80159 3.2415e-14 -0.0316171
393 1 12.011 41.6 21.2431 0 6.73493 -8.54695 -1.04181e-12 -0.111988
394 3 1.008 41.6 21.8742 0.892431 -2.97771 0.208779 -2.56438 -0.0753471
395 3 1.008 41.6 21.8742 61.5076 -2.97771 0.208779 2.56438 -0.0753471
396 3 1.008 40.7076 20.6121 0 -0.138465 3.80159 3.23665e-14 -0.0316171
397 2 12.011 42.8533 20.3569 5.42661e-17 -1.83507 14.4235 -1.00625e-12 -0.0845711
398 3 1.008 42.8533 19.7258 61.5076 -0.24094 -1.58879 3.48943 -0.0903621
399 3 1.008 42.8533 19.7258 0.892431 -0.24094 -1.58879 -3.48943 -0.0903621
400 2 12.011 44.1066 21.2431 0 1.83507 -14.4235 -1.00533e-12 -0.0845711
401 3 1.008 44.1066 21.8742 0.892431 0.24094 1.58879 -3.48943 -0.0903621
402 3 1.008 44.1066 21.8742 61.5076 0.24094 1.58879 3.48943 -0.0903621
403 1 12.011 45.36 20.3569 0 -6.73493 8.54695 -1.04242e-12 -0.111988
404 3 1.008 45.36 19.7258 0.892431 2.97771 -0.208779 -2.56438 -0.0753471
405 3 1.008 45.36 19.7258 61.5076 2.97771 -0.208779 2.56438 -0.0753471
406 3 1.008 46.2524 20.9879 0 0.138465 -3.80159 3.2415e-14 -0.0316171
407 1 12.011 52 21.2431 0 6.73493 -8.54695 -1.04182e-12 -0.111988
408 3 1.008 52 21.8742 0.892431 -2.97771 0.208779 -2.56438 -0.0753471
409 3 1.008 52 21.8742 61.5076 -2.97771 0.208779 2.56438 -0.0753471
410 3 1.008 51.1076 20.6121 0 -0.138465 3.80159 3.23737e-14 -0.0316171
411 2 12.011 53.2533 20.3569 5.42661e-17 -1.83507 14.4235 -1.00615e-12 -0.0845711
412 3 1.008 53.2533 19.7258 61.5076 -0.24094 -1.58879 3.48943 -0.0903621
413 3 1.008 53.2533 19.7258 0.892431 -0.24094 -1.58879 -3.48943 -0.0903621