
                                 *****************
                                 * O   R   C   A *
                                 *****************

                                            #,                                       
                                            ###                                      
                                            ####                                     
                                            #####                                    
                                            ######                                   
                                           ########,                                 
                                     ,,################,,,,,                         
                               ,,#################################,,                 
                          ,,##########################################,,             
                       ,#########################################, ''#####,          
                    ,#############################################,,   '####,        
                  ,##################################################,,,,####,       
                ,###########''''           ''''###############################       
              ,#####''   ,,,,##########,,,,          '''####'''          '####       
            ,##' ,,,,###########################,,,                        '##       
           ' ,,###''''                  '''############,,,                           
         ,,##''                                '''############,,,,        ,,,,,,###''
      ,#''                                            '''#######################'''  
     '                                                          ''''####''''         
             ,#######,   #######,   ,#######,      ##                                
            ,#'     '#,  ##    ##  ,#'     '#,    #''#        ,####,   ,####,        
            ##       ##  ##   ,#'  ##            #'  '#       #'       #'  '#        
            ##       ##  #######   ##           ,######,      #####,   #    #        
            '#,     ,#'  ##    ##  '#,     ,#' ,#      #,     #,   #   #,  ,#        
             '#######'   ##     ##  '#######'  #'      '#     '####' # '####'        



                #########################################################
                #                        -***-                          #
                #          Department of theory and spectroscopy        #
                #                                                       #
                #                      Frank Neese                      #
                #                                                       #
                #     Directorship, Architecture, Infrastructure        #
                #                    SHARK, DRIVERS                     #
                #        Core code/Algorithms in most modules           #
                #                                                       #
                #        Max Planck Institute fuer Kohlenforschung      #
                #                Kaiser Wilhelm Platz 1                 #
                #                 D-45470 Muelheim/Ruhr                 #
                #                      Germany                          #
                #                                                       #
                #                  All rights reserved                  #
                #                        -***-                          #
                #########################################################


                         Program Version 6.0.0  -   RELEASE  -


 With contributions from (in alphabetic order):
   Daniel Aravena         : Magnetic Suceptibility
   Michael Atanasov       : Ab Initio Ligand Field Theory (pilot matlab implementation)
   Alexander A. Auer      : GIAO ZORA, VPT2 properties, NMR spectrum
   Ute Becker             : All parallelization in ORCA, NUMFREQ, NUMCALC
   Giovanni Bistoni       : ED, misc. LED, open-shell LED, HFLD
   Martin Brehm           : Molecular dynamics
   Dmytro Bykov           : pre 5.0 version of the SCF Hessian
   Marcos Casanova-Páez   : Triplet and SCS-CIS(D). UHF-(DLPNO)-IP/EA/STEOM-CCSD. UHF-CVS-IP/STEOM-CCSD
   Vijay G. Chilkuri      : MRCI spin determinant printing, contributions to CSF-ICE
   Pauline Colinet        : FMM embedding
   Dipayan Datta          : RHF DLPNO-CCSD density
   Achintya Kumar Dutta   : EOM-CC, STEOM-CC
   Nicolas Foglia         : Exact transition moments, OPA infrastructure, MCD improvements
   Dmitry Ganyushin       : Spin-Orbit,Spin-Spin,Magnetic field MRCI
   Miquel Garcia          : C-PCM and meta-GGA Hessian, CCSD/C-PCM, Gaussian charge scheme
   Tiago L. C. Gouveia    : GS-ROHF, GS-ROCIS
   Yang Guo               : DLPNO-NEVPT2, F12-NEVPT2, CIM, IAO-localization
   Andreas Hansen         : Spin unrestricted coupled pair/coupled cluster methods
   Ingolf Harden          : AUTO-CI MPn and infrastructure 
   Benjamin Helmich-Paris : MC-RPA, TRAH-(SCF,CASSCF), AVAS, COSX integrals, SCF dyn. polar.
   Lee Huntington         : MR-EOM, pCC
   Robert Izsak           : Overlap fitted RIJCOSX, COSX-SCS-MP3, EOM
   Riya Kayal             : Wick's Theorem for AUTO-CI, AUTO-CI UHF-CCSDT
   Emily Kempfer          : AUTO-CI, RHF CISDT and CCSDT
   Christian Kollmar      : KDIIS, OOCD, Brueckner-CCSD(T), CCSD density, CASPT2, CASPT2-K, improved NEVPT2
   Axel Koslowski         : Symmetry handling
   Simone Kossmann        : Meta GGA functionals, TD-DFT gradient, OOMP2, (MP2 Hessian; deprecated post 5.0)
   Lucas Lang             : DCDCAS
   Marvin Lechner         : AUTO-CI (C++ implementation), FIC-MRCC
   Spencer Leger          : CASSCF response
   Dagmar Lenk            : GEPOL surface, SMD, ORCA-2-JSON
   Dimitrios Liakos       : Extrapolation schemes; Compound Job, initial MDCI parallelization
   Dimitrios Manganas     : Further ROCIS development; embedding schemes. LFT, Crystal Embedding
   Dimitrios Pantazis     : SARC Basis sets
   Anastasios Papadopoulos: AUTO-CI, single reference methods and gradients
   Taras Petrenko         : pre 6.0 DFT Hessian and TD-DFT gradient, (ASA, deprecated), ECA, 1-Electron XAS/XES, NRVS
   Peter Pinski           : DLPNO-MP2, DLPNO-MP2 Gradient
   Christoph Reimann      : Effective Core Potentials
   Marius Retegan         : Local ZFS, SOC
   Christoph Riplinger    : Optimizer, TS searches, QM/MM, DLPNO-CCSD(T), (RO)-DLPNO pert. Triples
   Michael Roemelt        : Original ROCIS implementation
   Masaaki Saitow         : Open-shell DLPNO-CCSD energy and density
   Barbara Sandhoefer     : DKH picture change effects
   Kantharuban Sivalingam : CASSCF convergence/infrastructure, NEVPT2 and variants, FIC-MRCI
   Bernardo de Souza      : ESD, SOC TD-DFT
   Georgi Stoychev        : AutoAux, RI-MP2 NMR, DLPNO-MP2 response, X2C
   Van Anh Tran           : RI-MP2 g-tensors
   Willem Van den Heuvel  : Paramagnetic NMR
   Zikuan Wang            : NOTCH, Electric field optimization 
   Frank Wennmohs         : Technical directorship and infrastructure
   Hang Xu                : AUTO-CI-Response properties 


 We gratefully acknowledge several colleagues who have allowed us to
 interface, adapt or use parts of their codes:
   Stefan Grimme, W. Hujo, H. Kruse, P. Pracht,  : VdW corrections, initial TS optimization,
                  C. Bannwarth, S. Ehlert,         DFT functionals, gCP, sTDA/sTD-DF
                  L. Wittmann, M. Mueller
   Ed Valeev, F. Pavosevic, A. Kumar             : LibInt (2-el integral package), F12 methods
   Garnet Chan, S. Sharma, J. Yang, R. Olivares  : DMRG
   Ulf Ekstrom                                   : XCFun DFT Library
   Mihaly Kallay                                 : mrcc  (arbitrary order and MRCC methods)
   Frank Weinhold                                : gennbo (NPA and NBO analysis)
   Simon Mueller                                 : openCOSMO-RS
   Christopher J. Cramer and Donald G. Truhlar   : smd solvation model
   Lars Goerigk                                  : TD-DFT with DH, B97 family of functionals
   V. Asgeirsson, H. Jonsson                     : NEB implementation
   FAccTs GmbH                                   : IRC, NEB, NEB-TS, DLPNO-Multilevel, CI-OPT
                                                   MM, QMMM, 2- and 3-layer-ONIOM, Crystal-QMMM,
                                                   LR-CPCM, SF, NACMEs, symmetry and pop. for TD-DFT,
                                                   nearIR, NL-DFT gradient (VV10), updates on ESD,
                                                   ML-optimized integration grids, MBIS, APM,
                                                   GOAT, DOCKER, SOLVATOR, interface openCOSMO-RS
   S Lehtola, MJT Oliveira, MAL Marques          : LibXC Library
   Liviu Ungur et al                             : ANISO software


 Your calculation uses the libint2 library for the computation of 2-el integrals
 For citations please refer to: http://libint.valeyev.net

 Your ORCA version has been built with support for libXC version: 6.2.2
 For citations please refer to: https://libxc.gitlab.io

 This ORCA versions uses:
   CBLAS   interface :  Fast vector & matrix operations
   LAPACKE interface :  Fast linear algebra routines
   SCALAPACK package :  Parallel linear algebra routines
   Shared memory     :  Shared parallel matrices
   BLAS/LAPACK       :  OpenBLAS 0.3.27  USE64BITINT DYNAMIC_ARCH NO_AFFINITY Haswell SINGLE_THREADED
        Core in use  :  Haswell
   Copyright (c) 2011-2014, The OpenBLAS Project




***************************************
The coordinates will be read from file: butane_cut.xyz
***************************************


Warning: RI is on but no J-basis has been assigned. Assigning Def2/J (nothing to worry about!)
================================================================================

----- Orbital basis set information -----
Your calculation utilizes the basis: def2-SVP
   F. Weigend and R. Ahlrichs, Phys. Chem. Chem. Phys. 7, 3297 (2005).

----- AuxJ basis set information -----
Your calculation utilizes the auxiliary basis: def2/J
   F. Weigend, Phys. Chem. Chem. Phys. 8, 1057 (2006).

================================================================================
                                        WARNINGS
                       Please study these warnings very carefully!
================================================================================


================================================================================
                                       INPUT FILE
================================================================================
NAME = butane_cut.inp
|  1> %pal nprocs 24 end
|  2> !ENGRAD PBE0 def2-SVP
|  3> *xyzfile 0 1 butane_cut.xyz
|  4> 
|  5>                          ****END OF INPUT****
================================================================================

                     *******************************
                     * Energy+Gradient Calculation *
                     *******************************

---------------------------------
CARTESIAN COORDINATES (ANGSTROEM)
---------------------------------
  C     52.000000   42.043100   46.800000
  H     52.000000   42.674200   47.692400
  H     52.000000   42.674200   45.907600
  H     51.107600   41.412100   46.800000
  C     53.253300   41.156900   46.800000
  H     53.253300   40.525800   45.907600
  H     53.253300   40.525800   47.692400
  C     54.506600   42.043100   46.800000
  H     54.506600   42.674200   47.692400
  H     54.506600   42.674200   45.907600
  C     55.760000   41.156900   46.800000
  H     55.760000   40.525800   47.692400
  H     55.760000   40.525800   45.907600
  H     56.652400   41.787900   46.800000
  C     41.600000   47.243100   46.800000
  H     41.600000   47.874200   47.692400
  H     41.600000   47.874200   45.907600
  H     40.707600   46.612100   46.800000
  C     42.853300   46.356900   46.800000
  H     42.853300   45.725800   45.907600
  H     42.853300   45.725800   47.692400
  C     44.106600   47.243100   46.800000
  H     44.106600   47.874200   47.692400
  H     44.106600   47.874200   45.907600
  C     45.360000   46.356900   46.800000
  H     45.360000   45.725800   47.692400
  H     45.360000   45.725800   45.907600
  H     46.252400   46.987900   46.800000
  C     52.000000   47.243100   46.800000
  H     52.000000   47.874200   47.692400
  H     52.000000   47.874200   45.907600
  H     51.107600   46.612100   46.800000
  C     53.253300   46.356900   46.800000
  H     53.253300   45.725800   45.907600
  H     53.253300   45.725800   47.692400
  C     54.506600   47.243100   46.800000
  H     54.506600   47.874200   47.692400
  H     54.506600   47.874200   45.907600
  C     55.760000   46.356900   46.800000
  H     55.760000   45.725800   47.692400
  H     55.760000   45.725800   45.907600
  H     56.652400   46.987900   46.800000
  C     41.600000   52.443100   46.800000
  H     41.600000   53.074200   47.692400
  H     41.600000   53.074200   45.907600
  H     40.707600   51.812100   46.800000
  C     42.853300   51.556900   46.800000
  H     42.853300   50.925800   45.907600
  H     42.853300   50.925800   47.692400
  C     44.106600   52.443100   46.800000
  H     44.106600   53.074200   47.692400
  H     44.106600   53.074200   45.907600
  C     45.360000   51.556900   46.800000
  H     45.360000   50.925800   47.692400
  H     45.360000   50.925800   45.907600
  H     46.252400   52.187900   46.800000
  C     52.000000   52.443100   46.800000
  H     52.000000   53.074200   47.692400
  H     52.000000   53.074200   45.907600
  H     51.107600   51.812100   46.800000
  C     53.253300   51.556900   46.800000
  H     53.253300   50.925800   45.907600
  H     53.253300   50.925800   47.692400
  C     54.506600   52.443100   46.800000
  H     54.506600   53.074200   47.692400
  H     54.506600   53.074200   45.907600
  C     55.760000   51.556900   46.800000
  H     55.760000   50.925800   47.692400
  H     55.760000   50.925800   45.907600
  H     56.652400   52.187900   46.800000
  C     52.000000   57.643100   46.800000
  H     52.000000   58.274200   47.692400
  H     52.000000   58.274200   45.907600
  H     51.107600   57.012100   46.800000
  C     53.253300   56.756900   46.800000
  H     53.253300   56.125800   45.907600
  H     53.253300   56.125800   47.692400
  C     54.506600   57.643100   46.800000
  H     54.506600   58.274200   47.692400
  H     54.506600   58.274200   45.907600
  C     55.760000   56.756900   46.800000
  H     55.760000   56.125800   47.692400
  H     55.760000   56.125800   45.907600
  H     56.652400   57.387900   46.800000
  C     52.000000   42.043100   52.000000
  H     52.000000   42.674200   52.892400
  H     52.000000   42.674200   51.107600
  H     51.107600   41.412100   52.000000
  C     53.253300   41.156900   52.000000
  H     53.253300   40.525800   51.107600
  H     53.253300   40.525800   52.892400
  C     54.506600   42.043100   52.000000
  H     54.506600   42.674200   52.892400
  H     54.506600   42.674200   51.107600
  C     55.760000   41.156900   52.000000
  H     55.760000   40.525800   52.892400
  H     55.760000   40.525800   51.107600
  H     56.652400   41.787900   52.000000
  C     41.600000   47.243100   52.000000
  H     41.600000   47.874200   52.892400
  H     41.600000   47.874200   51.107600
  H     40.707600   46.612100   52.000000
  C     42.853300   46.356900   52.000000
  H     42.853300   45.725800   51.107600
  H     42.853300   45.725800   52.892400
  C     44.106600   47.243100   52.000000
  H     44.106600   47.874200   52.892400
  H     44.106600   47.874200   51.107600
  C     45.360000   46.356900   52.000000
  H     45.360000   45.725800   52.892400
  H     45.360000   45.725800   51.107600
  H     46.252400   46.987900   52.000000
  C     52.000000   47.243100   52.000000
  H     52.000000   47.874200   52.892400
  H     52.000000   47.874200   51.107600
  H     51.107600   46.612100   52.000000
  C     53.253300   46.356900   52.000000
  H     53.253300   45.725800   51.107600
  H     53.253300   45.725800   52.892400
  C     54.506600   47.243100   52.000000
  H     54.506600   47.874200   52.892400
  H     54.506600   47.874200   51.107600
  C     55.760000   46.356900   52.000000
  H     55.760000   45.725800   52.892400
  H     55.760000   45.725800   51.107600
  H     56.652400   46.987900   52.000000
  C     41.600000   52.443100   52.000000
  H     41.600000   53.074200   52.892400
  H     41.600000   53.074200   51.107600
  H     40.707600   51.812100   52.000000
  C     42.853300   51.556900   52.000000
  H     42.853300   50.925800   51.107600
  H     42.853300   50.925800   52.892400
  C     44.106600   52.443100   52.000000
  H     44.106600   53.074200   52.892400
  H     44.106600   53.074200   51.107600
  C     45.360000   51.556900   52.000000
  H     45.360000   50.925800   52.892400
  H     45.360000   50.925800   51.107600
  H     46.252400   52.187900   52.000000
  C     52.000000   52.443100   52.000000
  H     52.000000   53.074200   52.892400
  H     52.000000   53.074200   51.107600
  H     51.107600   51.812100   52.000000
  C     53.253300   51.556900   52.000000
  H     53.253300   50.925800   51.107600
  H     53.253300   50.925800   52.892400
  C     54.506600   52.443100   52.000000
  H     54.506600   53.074200   52.892400
  H     54.506600   53.074200   51.107600
  C     55.760000   51.556900   52.000000
  H     55.760000   50.925800   52.892400
  H     55.760000   50.925800   51.107600
  H     56.652400   52.187900   52.000000
  C     41.600000   57.643100   52.000000
  H     41.600000   58.274200   52.892400
  H     41.600000   58.274200   51.107600
  H     40.707600   57.012100   52.000000
  C     42.853300   56.756900   52.000000
  H     42.853300   56.125800   51.107600
  H     42.853300   56.125800   52.892400
  C     44.106600   57.643100   52.000000
  H     44.106600   58.274200   52.892400
  H     44.106600   58.274200   51.107600
  C     45.360000   56.756900   52.000000
  H     45.360000   56.125800   52.892400
  H     45.360000   56.125800   51.107600
  H     46.252400   57.387900   52.000000
  C     52.000000   57.643100   52.000000
  H     52.000000   58.274200   52.892400
  H     52.000000   58.274200   51.107600
  H     51.107600   57.012100   52.000000
  C     53.253300   56.756900   52.000000
  H     53.253300   56.125800   51.107600
  H     53.253300   56.125800   52.892400
  C     54.506600   57.643100   52.000000
  H     54.506600   58.274200   52.892400
  H     54.506600   58.274200   51.107600
  C     55.760000   56.756900   52.000000
  H     55.760000   56.125800   52.892400
  H     55.760000   56.125800   51.107600
  H     56.652400   57.387900   52.000000
  C     52.000000   47.243100   57.200000
  H     52.000000   47.874200   58.092400
  H     52.000000   47.874200   56.307600
  H     51.107600   46.612100   57.200000
  C     53.253300   46.356900   57.200000
  H     53.253300   45.725800   56.307600
  H     53.253300   45.725800   58.092400
  C     54.506600   47.243100   57.200000
  H     54.506600   47.874200   58.092400
  H     54.506600   47.874200   56.307600
  C     55.760000   46.356900   57.200000
  H     55.760000   45.725800   58.092400
  H     55.760000   45.725800   56.307600
  H     56.652400   46.987900   57.200000
  C     41.600000   52.443100   57.200000
  H     41.600000   53.074200   58.092400
  H     41.600000   53.074200   56.307600
  H     40.707600   51.812100   57.200000
  C     42.853300   51.556900   57.200000
  H     42.853300   50.925800   56.307600
  H     42.853300   50.925800   58.092400
  C     44.106600   52.443100   57.200000
  H     44.106600   53.074200   58.092400
  H     44.106600   53.074200   56.307600
  C     45.360000   51.556900   57.200000
  H     45.360000   50.925800   58.092400
  H     45.360000   50.925800   56.307600
  H     46.252400   52.187900   57.200000
  C     52.000000   52.443100   57.200000
  H     52.000000   53.074200   58.092400
  H     52.000000   53.074200   56.307600
  H     51.107600   51.812100   57.200000
  C     53.253300   51.556900   57.200000
  H     53.253300   50.925800   56.307600
  H     53.253300   50.925800   58.092400
  C     54.506600   52.443100   57.200000
  H     54.506600   53.074200   58.092400
  H     54.506600   53.074200   56.307600
  C     55.760000   51.556900   57.200000
  H     55.760000   50.925800   58.092400
  H     55.760000   50.925800   56.307600
  H     56.652400   52.187900   57.200000

----------------------------
CARTESIAN COORDINATES (A.U.)
----------------------------
  NO LB      ZA    FRAG     MASS         X           Y           Z
   0 C     6.0000    0    12.011   98.265759   79.449945   88.439183
   1 H     1.0000    0     1.008   98.265759   80.642551   90.125575
   2 H     1.0000    0     1.008   98.265759   80.642551   86.752791
   3 H     1.0000    0     1.008   96.579367   78.257528   88.439183
   4 C     6.0000    0    12.011  100.634153   77.775270   88.439183
   5 H     1.0000    0     1.008  100.634153   76.582663   86.752791
   6 H     1.0000    0     1.008  100.634153   76.582663   90.125575
   7 C     6.0000    0    12.011  103.002546   79.449945   88.439183
   8 H     1.0000    0     1.008  103.002546   80.642551   90.125575
   9 H     1.0000    0     1.008  103.002546   80.642551   86.752791
  10 C     6.0000    0    12.011  105.371129   77.775270   88.439183
  11 H     1.0000    0     1.008  105.371129   76.582663   90.125575
  12 H     1.0000    0     1.008  105.371129   76.582663   86.752791
  13 H     1.0000    0     1.008  107.057521   78.967687   88.439183
  14 C     6.0000    0    12.011   78.612607   89.276521   88.439183
  15 H     1.0000    0     1.008   78.612607   90.469127   90.125575
  16 H     1.0000    0     1.008   78.612607   90.469127   86.752791
  17 H     1.0000    0     1.008   76.926216   88.084104   88.439183
  18 C     6.0000    0    12.011   80.981001   87.601845   88.439183
  19 H     1.0000    0     1.008   80.981001   86.409239   86.752791
  20 H     1.0000    0     1.008   80.981001   86.409239   90.125575
  21 C     6.0000    0    12.011   83.349395   89.276521   88.439183
  22 H     1.0000    0     1.008   83.349395   90.469127   90.125575
  23 H     1.0000    0     1.008   83.349395   90.469127   86.752791
  24 C     6.0000    0    12.011   85.717977   87.601845   88.439183
  25 H     1.0000    0     1.008   85.717977   86.409239   90.125575
  26 H     1.0000    0     1.008   85.717977   86.409239   86.752791
  27 H     1.0000    0     1.008   87.404369   88.794263   88.439183
  28 C     6.0000    0    12.011   98.265759   89.276521   88.439183
  29 H     1.0000    0     1.008   98.265759   90.469127   90.125575
  30 H     1.0000    0     1.008   98.265759   90.469127   86.752791
  31 H     1.0000    0     1.008   96.579367   88.084104   88.439183
  32 C     6.0000    0    12.011  100.634153   87.601845   88.439183
  33 H     1.0000    0     1.008  100.634153   86.409239   86.752791
  34 H     1.0000    0     1.008  100.634153   86.409239   90.125575
  35 C     6.0000    0    12.011  103.002546   89.276521   88.439183
  36 H     1.0000    0     1.008  103.002546   90.469127   90.125575
  37 H     1.0000    0     1.008  103.002546   90.469127   86.752791
  38 C     6.0000    0    12.011  105.371129   87.601845   88.439183
  39 H     1.0000    0     1.008  105.371129   86.409239   90.125575
  40 H     1.0000    0     1.008  105.371129   86.409239   86.752791
  41 H     1.0000    0     1.008  107.057521   88.794263   88.439183
  42 C     6.0000    0    12.011   78.612607   99.103097   88.439183
  43 H     1.0000    0     1.008   78.612607  100.295703   90.125575
  44 H     1.0000    0     1.008   78.612607  100.295703   86.752791
  45 H     1.0000    0     1.008   76.926216   97.910679   88.439183
  46 C     6.0000    0    12.011   80.981001   97.428421   88.439183
  47 H     1.0000    0     1.008   80.981001   96.235815   86.752791
  48 H     1.0000    0     1.008   80.981001   96.235815   90.125575
  49 C     6.0000    0    12.011   83.349395   99.103097   88.439183
  50 H     1.0000    0     1.008   83.349395  100.295703   90.125575
  51 H     1.0000    0     1.008   83.349395  100.295703   86.752791
  52 C     6.0000    0    12.011   85.717977   97.428421   88.439183
  53 H     1.0000    0     1.008   85.717977   96.235815   90.125575
  54 H     1.0000    0     1.008   85.717977   96.235815   86.752791
  55 H     1.0000    0     1.008   87.404369   98.620839   88.439183
  56 C     6.0000    0    12.011   98.265759   99.103097   88.439183
  57 H     1.0000    0     1.008   98.265759  100.295703   90.125575
  58 H     1.0000    0     1.008   98.265759  100.295703   86.752791
  59 H     1.0000    0     1.008   96.579367   97.910679   88.439183
  60 C     6.0000    0    12.011  100.634153   97.428421   88.439183
  61 H     1.0000    0     1.008  100.634153   96.235815   86.752791
  62 H     1.0000    0     1.008  100.634153   96.235815   90.125575
  63 C     6.0000    0    12.011  103.002546   99.103097   88.439183
  64 H     1.0000    0     1.008  103.002546  100.295703   90.125575
  65 H     1.0000    0     1.008  103.002546  100.295703   86.752791
  66 C     6.0000    0    12.011  105.371129   97.428421   88.439183
  67 H     1.0000    0     1.008  105.371129   96.235815   90.125575
  68 H     1.0000    0     1.008  105.371129   96.235815   86.752791
  69 H     1.0000    0     1.008  107.057521   98.620839   88.439183
  70 C     6.0000    0    12.011   98.265759  108.929673   88.439183
  71 H     1.0000    0     1.008   98.265759  110.122279   90.125575
  72 H     1.0000    0     1.008   98.265759  110.122279   86.752791
  73 H     1.0000    0     1.008   96.579367  107.737255   88.439183
  74 C     6.0000    0    12.011  100.634153  107.254997   88.439183
  75 H     1.0000    0     1.008  100.634153  106.062391   86.752791
  76 H     1.0000    0     1.008  100.634153  106.062391   90.125575
  77 C     6.0000    0    12.011  103.002546  108.929673   88.439183
  78 H     1.0000    0     1.008  103.002546  110.122279   90.125575
  79 H     1.0000    0     1.008  103.002546  110.122279   86.752791
  80 C     6.0000    0    12.011  105.371129  107.254997   88.439183
  81 H     1.0000    0     1.008  105.371129  106.062391   90.125575
  82 H     1.0000    0     1.008  105.371129  106.062391   86.752791
  83 H     1.0000    0     1.008  107.057521  108.447414   88.439183
  84 C     6.0000    0    12.011   98.265759   79.449945   98.265759
  85 H     1.0000    0     1.008   98.265759   80.642551   99.952151
  86 H     1.0000    0     1.008   98.265759   80.642551   96.579367
  87 H     1.0000    0     1.008   96.579367   78.257528   98.265759
  88 C     6.0000    0    12.011  100.634153   77.775270   98.265759
  89 H     1.0000    0     1.008  100.634153   76.582663   96.579367
  90 H     1.0000    0     1.008  100.634153   76.582663   99.952151
  91 C     6.0000    0    12.011  103.002546   79.449945   98.265759
  92 H     1.0000    0     1.008  103.002546   80.642551   99.952151
  93 H     1.0000    0     1.008  103.002546   80.642551   96.579367
  94 C     6.0000    0    12.011  105.371129   77.775270   98.265759
  95 H     1.0000    0     1.008  105.371129   76.582663   99.952151
  96 H     1.0000    0     1.008  105.371129   76.582663   96.579367
  97 H     1.0000    0     1.008  107.057521   78.967687   98.265759
  98 C     6.0000    0    12.011   78.612607   89.276521   98.265759
  99 H     1.0000    0     1.008   78.612607   90.469127   99.952151
 100 H     1.0000    0     1.008   78.612607   90.469127   96.579367
 101 H     1.0000    0     1.008   76.926216   88.084104   98.265759
 102 C     6.0000    0    12.011   80.981001   87.601845   98.265759
 103 H     1.0000    0     1.008   80.981001   86.409239   96.579367
 104 H     1.0000    0     1.008   80.981001   86.409239   99.952151
 105 C     6.0000    0    12.011   83.349395   89.276521   98.265759
 106 H     1.0000    0     1.008   83.349395   90.469127   99.952151
 107 H     1.0000    0     1.008   83.349395   90.469127   96.579367
 108 C     6.0000    0    12.011   85.717977   87.601845   98.265759
 109 H     1.0000    0     1.008   85.717977   86.409239   99.952151
 110 H     1.0000    0     1.008   85.717977   86.409239   96.579367
 111 H     1.0000    0     1.008   87.404369   88.794263   98.265759
 112 C     6.0000    0    12.011   98.265759   89.276521   98.265759
 113 H     1.0000    0     1.008   98.265759   90.469127   99.952151
 114 H     1.0000    0     1.008   98.265759   90.469127   96.579367
 115 H     1.0000    0     1.008   96.579367   88.084104   98.265759
 116 C     6.0000    0    12.011  100.634153   87.601845   98.265759
 117 H     1.0000    0     1.008  100.634153   86.409239   96.579367
 118 H     1.0000    0     1.008  100.634153   86.409239   99.952151
 119 C     6.0000    0    12.011  103.002546   89.276521   98.265759
 120 H     1.0000    0     1.008  103.002546   90.469127   99.952151
 121 H     1.0000    0     1.008  103.002546   90.469127   96.579367
 122 C     6.0000    0    12.011  105.371129   87.601845   98.265759
 123 H     1.0000    0     1.008  105.371129   86.409239   99.952151
 124 H     1.0000    0     1.008  105.371129   86.409239   96.579367
 125 H     1.0000    0     1.008  107.057521   88.794263   98.265759
 126 C     6.0000    0    12.011   78.612607   99.103097   98.265759
 127 H     1.0000    0     1.008   78.612607  100.295703   99.952151
 128 H     1.0000    0     1.008   78.612607  100.295703   96.579367
 129 H     1.0000    0     1.008   76.926216   97.910679   98.265759
 130 C     6.0000    0    12.011   80.981001   97.428421   98.265759
 131 H     1.0000    0     1.008   80.981001   96.235815   96.579367
 132 H     1.0000    0     1.008   80.981001   96.235815   99.952151
 133 C     6.0000    0    12.011   83.349395   99.103097   98.265759
 134 H     1.0000    0     1.008   83.349395  100.295703   99.952151
 135 H     1.0000    0     1.008   83.349395  100.295703   96.579367
 136 C     6.0000    0    12.011   85.717977   97.428421   98.265759
 137 H     1.0000    0     1.008   85.717977   96.235815   99.952151
 138 H     1.0000    0     1.008   85.717977   96.235815   96.579367
 139 H     1.0000    0     1.008   87.404369   98.620839   98.265759
 140 C     6.0000    0    12.011   98.265759   99.103097   98.265759
 141 H     1.0000    0     1.008   98.265759  100.295703   99.952151
 142 H     1.0000    0     1.008   98.265759  100.295703   96.579367
 143 H     1.0000    0     1.008   96.579367   97.910679   98.265759
 144 C     6.0000    0    12.011  100.634153   97.428421   98.265759
 145 H     1.0000    0     1.008  100.634153   96.235815   96.579367
 146 H     1.0000    0     1.008  100.634153   96.235815   99.952151
 147 C     6.0000    0    12.011  103.002546   99.103097   98.265759
 148 H     1.0000    0     1.008  103.002546  100.295703   99.952151
 149 H     1.0000    0     1.008  103.002546  100.295703   96.579367
 150 C     6.0000    0    12.011  105.371129   97.428421   98.265759
 151 H     1.0000    0     1.008  105.371129   96.235815   99.952151
 152 H     1.0000    0     1.008  105.371129   96.235815   96.579367
 153 H     1.0000    0     1.008  107.057521   98.620839   98.265759
 154 C     6.0000    0    12.011   78.612607  108.929673   98.265759
 155 H     1.0000    0     1.008   78.612607  110.122279   99.952151
 156 H     1.0000    0     1.008   78.612607  110.122279   96.579367
 157 H     1.0000    0     1.008   76.926216  107.737255   98.265759
 158 C     6.0000    0    12.011   80.981001  107.254997   98.265759
 159 H     1.0000    0     1.008   80.981001  106.062391   96.579367
 160 H     1.0000    0     1.008   80.981001  106.062391   99.952151
 161 C     6.0000    0    12.011   83.349395  108.929673   98.265759
 162 H     1.0000    0     1.008   83.349395  110.122279   99.952151
 163 H     1.0000    0     1.008   83.349395  110.122279   96.579367
 164 C     6.0000    0    12.011   85.717977  107.254997   98.265759
 165 H     1.0000    0     1.008   85.717977  106.062391   99.952151
 166 H     1.0000    0     1.008   85.717977  106.062391   96.579367
 167 H     1.0000    0     1.008   87.404369  108.447414   98.265759
 168 C     6.0000    0    12.011   98.265759  108.929673   98.265759
 169 H     1.0000    0     1.008   98.265759  110.122279   99.952151
 170 H     1.0000    0     1.008   98.265759  110.122279   96.579367
 171 H     1.0000    0     1.008   96.579367  107.737255   98.265759
 172 C     6.0000    0    12.011  100.634153  107.254997   98.265759
 173 H     1.0000    0     1.008  100.634153  106.062391   96.579367
 174 H     1.0000    0     1.008  100.634153  106.062391   99.952151
 175 C     6.0000    0    12.011  103.002546  108.929673   98.265759
 176 H     1.0000    0     1.008  103.002546  110.122279   99.952151
 177 H     1.0000    0     1.008  103.002546  110.122279   96.579367
 178 C     6.0000    0    12.011  105.371129  107.254997   98.265759
 179 H     1.0000    0     1.008  105.371129  106.062391   99.952151
 180 H     1.0000    0     1.008  105.371129  106.062391   96.579367
 181 H     1.0000    0     1.008  107.057521  108.447414   98.265759
 182 C     6.0000    0    12.011   98.265759   89.276521  108.092335
 183 H     1.0000    0     1.008   98.265759   90.469127  109.778726
 184 H     1.0000    0     1.008   98.265759   90.469127  106.405943
 185 H     1.0000    0     1.008   96.579367   88.084104  108.092335
 186 C     6.0000    0    12.011  100.634153   87.601845  108.092335
 187 H     1.0000    0     1.008  100.634153   86.409239  106.405943
 188 H     1.0000    0     1.008  100.634153   86.409239  109.778726
 189 C     6.0000    0    12.011  103.002546   89.276521  108.092335
 190 H     1.0000    0     1.008  103.002546   90.469127  109.778726
 191 H     1.0000    0     1.008  103.002546   90.469127  106.405943
 192 C     6.0000    0    12.011  105.371129   87.601845  108.092335
 193 H     1.0000    0     1.008  105.371129   86.409239  109.778726
 194 H     1.0000    0     1.008  105.371129   86.409239  106.405943
 195 H     1.0000    0     1.008  107.057521   88.794263  108.092335
 196 C     6.0000    0    12.011   78.612607   99.103097  108.092335
 197 H     1.0000    0     1.008   78.612607  100.295703  109.778726
 198 H     1.0000    0     1.008   78.612607  100.295703  106.405943
 199 H     1.0000    0     1.008   76.926216   97.910679  108.092335
 200 C     6.0000    0    12.011   80.981001   97.428421  108.092335
 201 H     1.0000    0     1.008   80.981001   96.235815  106.405943
 202 H     1.0000    0     1.008   80.981001   96.235815  109.778726
 203 C     6.0000    0    12.011   83.349395   99.103097  108.092335
 204 H     1.0000    0     1.008   83.349395  100.295703  109.778726
 205 H     1.0000    0     1.008   83.349395  100.295703  106.405943
 206 C     6.0000    0    12.011   85.717977   97.428421  108.092335
 207 H     1.0000    0     1.008   85.717977   96.235815  109.778726
 208 H     1.0000    0     1.008   85.717977   96.235815  106.405943
 209 H     1.0000    0     1.008   87.404369   98.620839  108.092335
 210 C     6.0000    0    12.011   98.265759   99.103097  108.092335
 211 H     1.0000    0     1.008   98.265759  100.295703  109.778726
 212 H     1.0000    0     1.008   98.265759  100.295703  106.405943
 213 H     1.0000    0     1.008   96.579367   97.910679  108.092335
 214 C     6.0000    0    12.011  100.634153   97.428421  108.092335
 215 H     1.0000    0     1.008  100.634153   96.235815  106.405943
 216 H     1.0000    0     1.008  100.634153   96.235815  109.778726
 217 C     6.0000    0    12.011  103.002546   99.103097  108.092335
 218 H     1.0000    0     1.008  103.002546  100.295703  109.778726
 219 H     1.0000    0     1.008  103.002546  100.295703  106.405943
 220 C     6.0000    0    12.011  105.371129   97.428421  108.092335
 221 H     1.0000    0     1.008  105.371129   96.235815  109.778726
 222 H     1.0000    0     1.008  105.371129   96.235815  106.405943
 223 H     1.0000    0     1.008  107.057521   98.620839  108.092335

--------------------------------
INTERNAL COORDINATES (ANGSTROEM)
--------------------------------
 C      0   0   0     0.000000000000     0.00000000     0.00000000
 H      1   0   0     1.093007305557     0.00000000     0.00000000
 H      1   2   0     1.093007305557   109.46455151     0.00000000
 H      1   2   3     1.092949568827   109.47241505   240.00188961
 C      1   2   3     1.534962973495   109.47262989   119.99850503
 H      5   1   2     1.093007305557   109.47262989   179.99999915
 H      5   1   2     1.093007305557   109.47262989    60.00644201
 C      5   1   2     1.534962973495   109.47225253   300.00322101
 H      8   5   1     1.093007305557   109.47262989    59.99677899
 H      8   5   1     1.093007305557   109.47262989   300.00322101
 C      8   5   1     1.535044624759   109.47440747   180.00000000
 H     11   8   5     1.093007305557   109.47155230   300.00388083
 H     11   8   5     1.093007305557   109.47155230    59.99611917
 H     11   8   5     1.092949568827   109.47483711   180.00000000
 C      4   1   2    11.153251488243   113.21581500    59.99664744
 H     15   4   1     1.093007305557   107.56981678   301.08360163
 H     15   4   1     1.093007305557   107.56981678    58.91639837
 H     15   4   1     1.092949568827   113.21581500   180.00000085
 C     15   4   1     1.534962973495     3.74313283   180.00000085
 H     19  15  18     1.093007305557   109.47262989    59.99677899
 H     19  15  18     1.093007305557   109.47262989   300.00322101
 C     19  15  18     1.534962973495   109.47225253   180.00000085
 H     22  19  15     1.093007305557   109.47262989    59.99677899
 H     22  19  15     1.093007305557   109.47262989   300.00322101
 C     22  19  15     1.535044624759   109.47440747   180.00000000
 H     25  22  19     1.093007305557   109.47155230   300.00388083
 H     25  22  19     1.093007305557   109.47155230    59.99611917
 H     25  22  19     1.092949568827   109.47483711   180.00000085
 C      2   1   3     4.655236295829   114.21582367     0.00000000
 H     29   2   1     1.093007305557   114.21582367   180.00000085
 H     29   2   1     1.093007305557   136.31962482     0.00000000
 H     29   2   1     1.092949568827    55.48447867    82.28081469
 C     29   2   1     1.534962973495    55.48406081   277.71930662
 H     33  29   2     1.093007305557   109.47262989    73.45004769
 H     33  29   2     1.093007305557   109.47262989   313.45648970
 C     33  29   2     1.534962973495   109.47225253   193.45326870
 H     36  33  29     1.093007305557   109.47262989    59.99677899
 H     36  33  29     1.093007305557   109.47262989   300.00322101
 C     36  33  29     1.535044624759   109.47440747   180.00000085
 H     39  36  33     1.093007305557   109.47155230   300.00388083
 H     39  36  33     1.093007305557   109.47155230    59.99611917
 H     39  36  33     1.092949568827   109.47483711   180.00000085
 C     16  15   4     4.655236295829   114.21582367   116.59876752
 H     43  16  15     1.093007305557   114.21582367   180.00000085
 H     43  16  15     1.093007305557   136.31962482     0.00000000
 H     43  16  15     1.092949568827    55.48447867    82.28081469
 C     43  16  15     1.534962973495    55.48406081   277.71930662
 H     47  43  16     1.093007305557   109.47262989    73.45004769
 H     47  43  16     1.093007305557   109.47262989   313.45648970
 C     47  43  16     1.534962973495   109.47225253   193.45326870
 H     50  47  43     1.093007305557   109.47262989    59.99677899
 H     50  47  43     1.093007305557   109.47262989   300.00322101
 C     50  47  43     1.535044624759   109.47440747   180.00000000
 H     53  50  47     1.093007305557   109.47155230   300.00388083
 H     53  50  47     1.093007305557   109.47155230    59.99611917
 H     53  50  47     1.092949568827   109.47483711   180.00000000
 C     30  29   2     4.655236295829   114.21582367   180.00000000
 H     57  30  29     1.093007305557   114.21582367   180.00000085
 H     57  30  29     1.093007305557   136.31962482     0.00000000
 H     57  30  29     1.092949568827    55.48447867    82.28081469
 C     57  30  29     1.534962973495    55.48406081   277.71930662
 H     61  57  30     1.093007305557   109.47262989    73.45004769
 H     61  57  30     1.093007305557   109.47262989   313.45648970
 C     61  57  30     1.534962973495   109.47225253   193.45326870
 H     64  61  57     1.093007305557   109.47262989    59.99677899
 H     64  61  57     1.093007305557   109.47262989   300.00322101
 C     64  61  57     1.535044624759   109.47440747   180.00000000
 H     67  64  61     1.093007305557   109.47155230   300.00388083
 H     67  64  61     1.093007305557   109.47155230    59.99611917
 H     67  64  61     1.092949568827   109.47483711   180.00000000
 C     58  57  30     4.655236295829   114.21582367   180.00000000
 H     71  58  57     1.093007305557   114.21582367   180.00000085
 H     71  58  57     1.093007305557   136.31962482     0.00000000
 H     71  58  57     1.092949568827    55.48447867    82.28081469
 C     71  58  57     1.534962973495    55.48406081   277.71930662
 H     75  71  58     1.093007305557   109.47262989    73.45004769
 H     75  71  58     1.093007305557   109.47262989   313.45648970
 C     75  71  58     1.534962973495   109.47225253   193.45326870
 H     78  75  71     1.093007305557   109.47262989    59.99677899
 H     78  75  71     1.093007305557   109.47262989   300.00322101
 C     78  75  71     1.535044624759   109.47440747   180.00000000
 H     81  78  75     1.093007305557   109.47155230   300.00388083
 H     81  78  75     1.093007305557   109.47155230    59.99611917
 H     81  78  75     1.092949568827   109.47483711   180.00000000
 C      2   1   3     4.353585300646   136.39725601   180.00000000
 H     85   2   1     1.093007305557   136.39725601   180.00000000
 H     85   2   1     1.093007305557    26.93270450   180.00000000
 H     85   2   1     1.092949568827    94.80077422   304.97715066
 C     85   2   1     1.534962973495    94.80082525    55.02242124
 H     89  85   2     1.093007305557   109.47262989   323.17521860
 H     89  85   2     1.093007305557   109.47262989   203.18166061
 C     89  85   2     1.534962973495   109.47225253    83.17843960
 H     92  89  85     1.093007305557   109.47262989    59.99677899
 H     92  89  85     1.093007305557   109.47262989   300.00322101
 C     92  89  85     1.535044624759   109.47440747   180.00000000
 H     95  92  89     1.093007305557   109.47155230   300.00388083
 H     95  92  89     1.093007305557   109.47155230    59.99611917
 H     95  92  89     1.092949568827   109.47483711   180.00000000
 C     16  15   4     4.353585300646   136.39725601   296.59876752
 H     99  16  15     1.093007305557   136.39725601   180.00000000
 H     99  16  15     1.093007305557    26.93270450   180.00000000
 H     99  16  15     1.092949568827    94.80077422   304.97715066
 C     99  16  15     1.534962973495    94.80082525    55.02242124
 H    103  99  16     1.093007305557   109.47262989   323.17521860
 H    103  99  16     1.093007305557   109.47262989   203.18166061
 C    103  99  16     1.534962973495   109.47225253    83.17843960
 H    106 103  99     1.093007305557   109.47262989    59.99677899
 H    106 103  99     1.093007305557   109.47262989   300.00322101
 C    106 103  99     1.535044624759   109.47440747   180.00000000
 H    109 106 103     1.093007305557   109.47155230   300.00388083
 H    109 106 103     1.093007305557   109.47155230    59.99611917
 H    109 106 103     1.092949568827   109.47483711   180.00000085
 C     30  29   2     4.353585300646   136.39725601     0.00000000
 H    113  30  29     1.093007305557   136.39725601   180.00000000
 H    113  30  29     1.093007305557    26.93270450   180.00000000
 H    113  30  29     1.092949568827    94.80077422   304.97715066
 C    113  30  29     1.534962973495    94.80082525    55.02242124
 H    117 113  30     1.093007305557   109.47262989   323.17521860
 H    117 113  30     1.093007305557   109.47262989   203.18166061
 C    117 113  30     1.534962973495   109.47225253    83.17843960
 H    120 117 113     1.093007305557   109.47262989    59.99677899
 H    120 117 113     1.093007305557   109.47262989   300.00322101
 C    120 117 113     1.535044624759   109.47440747   180.00000085
 H    123 120 117     1.093007305557   109.47155230   300.00388083
 H    123 120 117     1.093007305557   109.47155230    59.99611917
 H    123 120 117     1.092949568827   109.47483711   180.00000085
 C     44  43  16     4.353585300646   136.39725601     0.00000000
 H    127  44  43     1.093007305557   136.39725601   180.00000000
 H    127  44  43     1.093007305557    26.93270450   180.00000000
 H    127  44  43     1.092949568827    94.80077422   304.97715066
 C    127  44  43     1.534962973495    94.80082525    55.02242124
 H    131 127  44     1.093007305557   109.47262989   323.17521860
 H    131 127  44     1.093007305557   109.47262989   203.18166061
 C    131 127  44     1.534962973495   109.47225253    83.17843960
 H    134 131 127     1.093007305557   109.47262989    59.99677899
 H    134 131 127     1.093007305557   109.47262989   300.00322101
 C    134 131 127     1.535044624759   109.47440747   180.00000000
 H    137 134 131     1.093007305557   109.47155230   300.00388083
 H    137 134 131     1.093007305557   109.47155230    59.99611917
 H    137 134 131     1.092949568827   109.47483711   180.00000000
 C     58  57  30     4.353585300646   136.39725601     0.00000000
 H    141  58  57     1.093007305557   136.39725601   180.00000000
 H    141  58  57     1.093007305557    26.93270450   180.00000000
 H    141  58  57     1.092949568827    94.80077422   304.97715066
 C    141  58  57     1.534962973495    94.80082525    55.02242124
 H    145 141  58     1.093007305557   109.47262989   323.17521860
 H    145 141  58     1.093007305557   109.47262989   203.18166061
 C    145 141  58     1.534962973495   109.47225253    83.17843960
 H    148 145 141     1.093007305557   109.47262989    59.99677899
 H    148 145 141     1.093007305557   109.47262989   300.00322101
 C    148 145 141     1.535044624759   109.47440747   180.00000000
 H    151 148 145     1.093007305557   109.47155230   300.00388083
 H    151 148 145     1.093007305557   109.47155230    59.99611917
 H    151 148 145     1.092949568827   109.47483711   180.00000000
 C    128 127  44     4.655236295829   114.21582367     0.00000000
 H    155 128 127     1.093007305557   114.21582367   180.00000085
 H    155 128 127     1.093007305557   136.31962482     0.00000000
 H    155 128 127     1.092949568827    55.48447867    82.28081469
 C    155 128 127     1.534962973495    55.48406081   277.71930662
 H    159 155 128     1.093007305557   109.47262989    73.45004769
 H    159 155 128     1.093007305557   109.47262989   313.45648970
 C    159 155 128     1.534962973495   109.47225253   193.45326870
 H    162 159 155     1.093007305557   109.47262989    59.99677899
 H    162 159 155     1.093007305557   109.47262989   300.00322101
 C    162 159 155     1.535044624759   109.47440747   180.00000000
 H    165 162 159     1.093007305557   109.47155230   300.00388083
 H    165 162 159     1.093007305557   109.47155230    59.99611917
 H    165 162 159     1.092949568827   109.47483711   180.00000000
 C     72  71  58     4.353585300646   136.39725601     0.00000000
 H    169  72  71     1.093007305557   136.39725601   180.00000000
 H    169  72  71     1.093007305557    26.93270450   180.00000000
 H    169  72  71     1.092949568827    94.80077422   304.97715066
 C    169  72  71     1.534962973495    94.80082525    55.02242124
 H    173 169  72     1.093007305557   109.47262989   323.17521860
 H    173 169  72     1.093007305557   109.47262989   203.18166061
 C    173 169  72     1.534962973495   109.47225253    83.17843960
 H    176 173 169     1.093007305557   109.47262989    59.99677899
 H    176 173 169     1.093007305557   109.47262989   300.00322101
 C    176 173 169     1.535044624759   109.47440747   180.00000000
 H    179 176 173     1.093007305557   109.47155230   300.00388083
 H    179 176 173     1.093007305557   109.47155230    59.99611917
 H    179 176 173     1.092949568827   109.47483711   180.00000000
 C    114 113  30     4.353585300646   136.39725601   180.00000000
 H    183 114 113     1.093007305557   136.39725601   180.00000000
 H    183 114 113     1.093007305557    26.93270450   180.00000000
 H    183 114 113     1.092949568827    94.80077422   304.97715066
 C    183 114 113     1.534962973495    94.80082525    55.02242124
 H    187 183 114     1.093007305557   109.47262989   323.17521860
 H    187 183 114     1.093007305557   109.47262989   203.18166061
 C    187 183 114     1.534962973495   109.47225253    83.17843960
 H    190 187 183     1.093007305557   109.47262989    59.99677899
 H    190 187 183     1.093007305557   109.47262989   300.00322101
 C    190 187 183     1.535044624759   109.47440747   180.00000085
 H    193 190 187     1.093007305557   109.47155230   300.00388083
 H    193 190 187     1.093007305557   109.47155230    59.99611917
 H    193 190 187     1.092949568827   109.47483711   180.00000085
 C    128 127  44     4.353585300646   136.39725601   180.00000000
 H    197 128 127     1.093007305557   136.39725601   180.00000000
 H    197 128 127     1.093007305557    26.93270450   180.00000000
 H    197 128 127     1.092949568827    94.80077422   304.97715066
 C    197 128 127     1.534962973495    94.80082525    55.02242124
 H    201 197 128     1.093007305557   109.47262989   323.17521860
 H    201 197 128     1.093007305557   109.47262989   203.18166061
 C    201 197 128     1.534962973495   109.47225253    83.17843960
 H    204 201 197     1.093007305557   109.47262989    59.99677899
 H    204 201 197     1.093007305557   109.47262989   300.00322101
 C    204 201 197     1.535044624759   109.47440747   180.00000000
 H    207 204 201     1.093007305557   109.47155230   300.00388083
 H    207 204 201     1.093007305557   109.47155230    59.99611917
 H    207 204 201     1.092949568827   109.47483711   180.00000000
 C    142 141  58     4.353585300646   136.39725601   180.00000000
 H    211 142 141     1.093007305557   136.39725601   180.00000000
 H    211 142 141     1.093007305557    26.93270450   180.00000000
 H    211 142 141     1.092949568827    94.80077422   304.97715066
 C    211 142 141     1.534962973495    94.80082525    55.02242124
 H    215 211 142     1.093007305557   109.47262989   323.17521860
 H    215 211 142     1.093007305557   109.47262989   203.18166061
 C    215 211 142     1.534962973495   109.47225253    83.17843960
 H    218 215 211     1.093007305557   109.47262989    59.99677899
 H    218 215 211     1.093007305557   109.47262989   300.00322101
 C    218 215 211     1.535044624759   109.47440747   180.00000000
 H    221 218 215     1.093007305557   109.47155230   300.00388083
 H    221 218 215     1.093007305557   109.47155230    59.99611917
 H    221 218 215     1.092949568827   109.47483711   180.00000000

---------------------------
INTERNAL COORDINATES (A.U.)
---------------------------
 C      0   0   0     0.000000000000     0.00000000     0.00000000
 H      1   0   0     2.065484469877     0.00000000     0.00000000
 H      1   2   0     2.065484469877   109.46455151     0.00000000
 H      1   2   3     2.065375363271   109.47241505   240.00188961
 C      1   2   3     2.900659645615   109.47262989   119.99850503
 H      5   1   2     2.065484469877   109.47262989   179.99999915
 H      5   1   2     2.065484469877   109.47262989    60.00644201
 C      5   1   2     2.900659645615   109.47225253   300.00322101
 H      8   5   1     2.065484469877   109.47262989    59.99677899
 H      8   5   1     2.065484469877   109.47262989   300.00322101
 C      8   5   1     2.900813944142   109.47440747   180.00000000
 H     11   8   5     2.065484469877   109.47155230   300.00388083
 H     11   8   5     2.065484469877   109.47155230    59.99611917
 H     11   8   5     2.065375363271   109.47483711   180.00000000
 C      4   1   2    21.076590815529   113.21581500    59.99664744
 H     15   4   1     2.065484469877   107.56981678   301.08360163
 H     15   4   1     2.065484469877   107.56981678    58.91639837
 H     15   4   1     2.065375363271   113.21581500   180.00000085
 C     15   4   1     2.900659645615     3.74313283   180.00000085
 H     19  15  18     2.065484469877   109.47262989    59.99677899
 H     19  15  18     2.065484469877   109.47262989   300.00322101
 C     19  15  18     2.900659645615   109.47225253   180.00000085
 H     22  19  15     2.065484469877   109.47262989    59.99677899
 H     22  19  15     2.065484469877   109.47262989   300.00322101
 C     22  19  15     2.900813944141   109.47440747   180.00000000
 H     25  22  19     2.065484469877   109.47155230   300.00388083
 H     25  22  19     2.065484469877   109.47155230    59.99611917
 H     25  22  19     2.065375363271   109.47483711   180.00000085
 C      2   1   3     8.797121687806   114.21582367     0.00000000
 H     29   2   1     2.065484469877   114.21582367   180.00000085
 H     29   2   1     2.065484469877   136.31962482     0.00000000
 H     29   2   1     2.065375363271    55.48447867    82.28081469
 C     29   2   1     2.900659645615    55.48406081   277.71930662
 H     33  29   2     2.065484469877   109.47262989    73.45004769
 H     33  29   2     2.065484469877   109.47262989   313.45648970
 C     33  29   2     2.900659645615   109.47225253   193.45326870
 H     36  33  29     2.065484469877   109.47262989    59.99677899
 H     36  33  29     2.065484469877   109.47262989   300.00322101
 C     36  33  29     2.900813944141   109.47440747   180.00000085
 H     39  36  33     2.065484469877   109.47155230   300.00388083
 H     39  36  33     2.065484469877   109.47155230    59.99611917
 H     39  36  33     2.065375363271   109.47483711   180.00000085
 C     16  15   4     8.797121687806   114.21582367   116.59876752
 H     43  16  15     2.065484469877   114.21582367   180.00000085
 H     43  16  15     2.065484469877   136.31962482     0.00000000
 H     43  16  15     2.065375363271    55.48447867    82.28081469
 C     43  16  15     2.900659645615    55.48406081   277.71930662
 H     47  43  16     2.065484469877   109.47262989    73.45004769
 H     47  43  16     2.065484469877   109.47262989   313.45648970
 C     47  43  16     2.900659645615   109.47225253   193.45326870
 H     50  47  43     2.065484469877   109.47262989    59.99677899
 H     50  47  43     2.065484469877   109.47262989   300.00322101
 C     50  47  43     2.900813944142   109.47440747   180.00000000
 H     53  50  47     2.065484469877   109.47155230   300.00388083
 H     53  50  47     2.065484469877   109.47155230    59.99611917
 H     53  50  47     2.065375363271   109.47483711   180.00000000
 C     30  29   2     8.797121687806   114.21582367   180.00000000
 H     57  30  29     2.065484469877   114.21582367   180.00000085
 H     57  30  29     2.065484469877   136.31962482     0.00000000
 H     57  30  29     2.065375363271    55.48447867    82.28081469
 C     57  30  29     2.900659645615    55.48406081   277.71930662
 H     61  57  30     2.065484469877   109.47262989    73.45004769
 H     61  57  30     2.065484469877   109.47262989   313.45648970
 C     61  57  30     2.900659645615   109.47225253   193.45326870
 H     64  61  57     2.065484469877   109.47262989    59.99677899
 H     64  61  57     2.065484469877   109.47262989   300.00322101
 C     64  61  57     2.900813944142   109.47440747   180.00000000
 H     67  64  61     2.065484469877   109.47155230   300.00388083
 H     67  64  61     2.065484469877   109.47155230    59.99611917
 H     67  64  61     2.065375363271   109.47483711   180.00000000
 C     58  57  30     8.797121687806   114.21582367   180.00000000
 H     71  58  57     2.065484469877   114.21582367   180.00000085
 H     71  58  57     2.065484469877   136.31962482     0.00000000
 H     71  58  57     2.065375363271    55.48447867    82.28081469
 C     71  58  57     2.900659645615    55.48406081   277.71930662
 H     75  71  58     2.065484469877   109.47262989    73.45004769
 H     75  71  58     2.065484469877   109.47262989   313.45648970
 C     75  71  58     2.900659645615   109.47225253   193.45326870
 H     78  75  71     2.065484469877   109.47262989    59.99677899
 H     78  75  71     2.065484469877   109.47262989   300.00322101
 C     78  75  71     2.900813944142   109.47440747   180.00000000
 H     81  78  75     2.065484469877   109.47155230   300.00388083
 H     81  78  75     2.065484469877   109.47155230    59.99611917
 H     81  78  75     2.065375363271   109.47483711   180.00000000
 C      2   1   3     8.227083918886   136.39725601   180.00000000
 H     85   2   1     2.065484469877   136.39725601   180.00000000
 H     85   2   1     2.065484469877    26.93270450   180.00000000
 H     85   2   1     2.065375363271    94.80077422   304.97715066
 C     85   2   1     2.900659645615    94.80082525    55.02242124
 H     89  85   2     2.065484469877   109.47262989   323.17521860
 H     89  85   2     2.065484469877   109.47262989   203.18166061
 C     89  85   2     2.900659645615   109.47225253    83.17843960
 H     92  89  85     2.065484469877   109.47262989    59.99677899
 H     92  89  85     2.065484469877   109.47262989   300.00322101
 C     92  89  85     2.900813944142   109.47440747   180.00000000
 H     95  92  89     2.065484469877   109.47155230   300.00388083
 H     95  92  89     2.065484469877   109.47155230    59.99611917
 H     95  92  89     2.065375363271   109.47483711   180.00000000
 C     16  15   4     8.227083918886   136.39725601   296.59876752
 H     99  16  15     2.065484469877   136.39725601   180.00000000
 H     99  16  15     2.065484469877    26.93270450   180.00000000
 H     99  16  15     2.065375363271    94.80077422   304.97715066
 C     99  16  15     2.900659645615    94.80082525    55.02242124
 H    103  99  16     2.065484469877   109.47262989   323.17521860
 H    103  99  16     2.065484469877   109.47262989   203.18166061
 C    103  99  16     2.900659645615   109.47225253    83.17843960
 H    106 103  99     2.065484469877   109.47262989    59.99677899
 H    106 103  99     2.065484469877   109.47262989   300.00322101
 C    106 103  99     2.900813944141   109.47440747   180.00000000
 H    109 106 103     2.065484469877   109.47155230   300.00388083
 H    109 106 103     2.065484469877   109.47155230    59.99611917
 H    109 106 103     2.065375363271   109.47483711   180.00000085
 C     30  29   2     8.227083918886   136.39725601     0.00000000
 H    113  30  29     2.065484469877   136.39725601   180.00000000
 H    113  30  29     2.065484469877    26.93270450   180.00000000
 H    113  30  29     2.065375363271    94.80077422   304.97715066
 C    113  30  29     2.900659645615    94.80082525    55.02242124
 H    117 113  30     2.065484469877   109.47262989   323.17521860
 H    117 113  30     2.065484469877   109.47262989   203.18166061
 C    117 113  30     2.900659645615   109.47225253    83.17843960
 H    120 117 113     2.065484469877   109.47262989    59.99677899
 H    120 117 113     2.065484469877   109.47262989   300.00322101
 C    120 117 113     2.900813944141   109.47440747   180.00000085
 H    123 120 117     2.065484469877   109.47155230   300.00388083
 H    123 120 117     2.065484469877   109.47155230    59.99611917
 H    123 120 117     2.065375363271   109.47483711   180.00000085
 C     44  43  16     8.227083918886   136.39725601     0.00000000
 H    127  44  43     2.065484469877   136.39725601   180.00000000
 H    127  44  43     2.065484469877    26.93270450   180.00000000
 H    127  44  43     2.065375363271    94.80077422   304.97715066
 C    127  44  43     2.900659645615    94.80082525    55.02242124
 H    131 127  44     2.065484469877   109.47262989   323.17521860
 H    131 127  44     2.065484469877   109.47262989   203.18166061
 C    131 127  44     2.900659645615   109.47225253    83.17843960
 H    134 131 127     2.065484469877   109.47262989    59.99677899
 H    134 131 127     2.065484469877   109.47262989   300.00322101
 C    134 131 127     2.900813944142   109.47440747   180.00000000
 H    137 134 131     2.065484469877   109.47155230   300.00388083
 H    137 134 131     2.065484469877   109.47155230    59.99611917
 H    137 134 131     2.065375363271   109.47483711   180.00000000
 C     58  57  30     8.227083918886   136.39725601     0.00000000
 H    141  58  57     2.065484469877   136.39725601   180.00000000
 H    141  58  57     2.065484469877    26.93270450   180.00000000
 H    141  58  57     2.065375363271    94.80077422   304.97715066
 C    141  58  57     2.900659645615    94.80082525    55.02242124
 H    145 141  58     2.065484469877   109.47262989   323.17521860
 H    145 141  58     2.065484469877   109.47262989   203.18166061
 C    145 141  58     2.900659645615   109.47225253    83.17843960
 H    148 145 141     2.065484469877   109.47262989    59.99677899
 H    148 145 141     2.065484469877   109.47262989   300.00322101
 C    148 145 141     2.900813944142   109.47440747   180.00000000
 H    151 148 145     2.065484469877   109.47155230   300.00388083
 H    151 148 145     2.065484469877   109.47155230    59.99611917
 H    151 148 145     2.065375363271   109.47483711   180.00000000
 C    128 127  44     8.797121687806   114.21582367     0.00000000
 H    155 128 127     2.065484469877   114.21582367   180.00000085
 H    155 128 127     2.065484469877   136.31962482     0.00000000
 H    155 128 127     2.065375363271    55.48447867    82.28081469
 C    155 128 127     2.900659645615    55.48406081   277.71930662
 H    159 155 128     2.065484469877   109.47262989    73.45004769
 H    159 155 128     2.065484469877   109.47262989   313.45648970
 C    159 155 128     2.900659645615   109.47225253   193.45326870
 H    162 159 155     2.065484469877   109.47262989    59.99677899
 H    162 159 155     2.065484469877   109.47262989   300.00322101
 C    162 159 155     2.900813944142   109.47440747   180.00000000
 H    165 162 159     2.065484469877   109.47155230   300.00388083
 H    165 162 159     2.065484469877   109.47155230    59.99611917
 H    165 162 159     2.065375363271   109.47483711   180.00000000
 C     72  71  58     8.227083918886   136.39725601     0.00000000
 H    169  72  71     2.065484469877   136.39725601   180.00000000
 H    169  72  71     2.065484469877    26.93270450   180.00000000
 H    169  72  71     2.065375363271    94.80077422   304.97715066
 C    169  72  71     2.900659645615    94.80082525    55.02242124
 H    173 169  72     2.065484469877   109.47262989   323.17521860
 H    173 169  72     2.065484469877   109.47262989   203.18166061
 C    173 169  72     2.900659645615   109.47225253    83.17843960
 H    176 173 169     2.065484469877   109.47262989    59.99677899
 H    176 173 169     2.065484469877   109.47262989   300.00322101
 C    176 173 169     2.900813944142   109.47440747   180.00000000
 H    179 176 173     2.065484469877   109.47155230   300.00388083
 H    179 176 173     2.065484469877   109.47155230    59.99611917
 H    179 176 173     2.065375363271   109.47483711   180.00000000
 C    114 113  30     8.227083918886   136.39725601   180.00000000
 H    183 114 113     2.065484469877   136.39725601   180.00000000
 H    183 114 113     2.065484469877    26.93270450   180.00000000
 H    183 114 113     2.065375363271    94.80077422   304.97715066
 C    183 114 113     2.900659645615    94.80082525    55.02242124
 H    187 183 114     2.065484469877   109.47262989   323.17521860
 H    187 183 114     2.065484469877   109.47262989   203.18166061
 C    187 183 114     2.900659645615   109.47225253    83.17843960
 H    190 187 183     2.065484469877   109.47262989    59.99677899
 H    190 187 183     2.065484469877   109.47262989   300.00322101
 C    190 187 183     2.900813944141   109.47440747   180.00000085
 H    193 190 187     2.065484469877   109.47155230   300.00388083
 H    193 190 187     2.065484469877   109.47155230    59.99611917
 H    193 190 187     2.065375363271   109.47483711   180.00000085
 C    128 127  44     8.227083918886   136.39725601   180.00000000
 H    197 128 127     2.065484469877   136.39725601   180.00000000
 H    197 128 127     2.065484469877    26.93270450   180.00000000
 H    197 128 127     2.065375363271    94.80077422   304.97715066
 C    197 128 127     2.900659645615    94.80082525    55.02242124
 H    201 197 128     2.065484469877   109.47262989   323.17521860
 H    201 197 128     2.065484469877   109.47262989   203.18166061
 C    201 197 128     2.900659645615   109.47225253    83.17843960
 H    204 201 197     2.065484469877   109.47262989    59.99677899
 H    204 201 197     2.065484469877   109.47262989   300.00322101
 C    204 201 197     2.900813944142   109.47440747   180.00000000
 H    207 204 201     2.065484469877   109.47155230   300.00388083
 H    207 204 201     2.065484469877   109.47155230    59.99611917
 H    207 204 201     2.065375363271   109.47483711   180.00000000
 C    142 141  58     8.227083918886   136.39725601   180.00000000
 H    211 142 141     2.065484469877   136.39725601   180.00000000
 H    211 142 141     2.065484469877    26.93270450   180.00000000
 H    211 142 141     2.065375363271    94.80077422   304.97715066
 C    211 142 141     2.900659645615    94.80082525    55.02242124
 H    215 211 142     2.065484469877   109.47262989   323.17521860
 H    215 211 142     2.065484469877   109.47262989   203.18166061
 C    215 211 142     2.900659645615   109.47225253    83.17843960
 H    218 215 211     2.065484469877   109.47262989    59.99677899
 H    218 215 211     2.065484469877   109.47262989   300.00322101
 C    218 215 211     2.900813944142   109.47440747   180.00000000
 H    221 218 215     2.065484469877   109.47155230   300.00388083
 H    221 218 215     2.065484469877   109.47155230    59.99611917
 H    221 218 215     2.065375363271   109.47483711   180.00000000

---------------------
BASIS SET INFORMATION
---------------------
There are 2 groups of distinct atoms

 Group   1 Type C   : 7s4p1d contracted to 3s2p1d pattern {511/31/1}
 Group   2 Type H   : 4s1p contracted to 2s1p pattern {31/1}

Atom   0C    basis set group =>   1
Atom   1H    basis set group =>   2
Atom   2H    basis set group =>   2
Atom   3H    basis set group =>   2
Atom   4C    basis set group =>   1
Atom   5H    basis set group =>   2
Atom   6H    basis set group =>   2
Atom   7C    basis set group =>   1
Atom   8H    basis set group =>   2
Atom   9H    basis set group =>   2
Atom  10C    basis set group =>   1
Atom  11H    basis set group =>   2
Atom  12H    basis set group =>   2
Atom  13H    basis set group =>   2
Atom  14C    basis set group =>   1
Atom  15H    basis set group =>   2
Atom  16H    basis set group =>   2
Atom  17H    basis set group =>   2
Atom  18C    basis set group =>   1
Atom  19H    basis set group =>   2
Atom  20H    basis set group =>   2
Atom  21C    basis set group =>   1
Atom  22H    basis set group =>   2
Atom  23H    basis set group =>   2
Atom  24C    basis set group =>   1
Atom  25H    basis set group =>   2
Atom  26H    basis set group =>   2
Atom  27H    basis set group =>   2
Atom  28C    basis set group =>   1
Atom  29H    basis set group =>   2
Atom  30H    basis set group =>   2
Atom  31H    basis set group =>   2
Atom  32C    basis set group =>   1
Atom  33H    basis set group =>   2
Atom  34H    basis set group =>   2
Atom  35C    basis set group =>   1
Atom  36H    basis set group =>   2
Atom  37H    basis set group =>   2
Atom  38C    basis set group =>   1
Atom  39H    basis set group =>   2
Atom  40H    basis set group =>   2
Atom  41H    basis set group =>   2
Atom  42C    basis set group =>   1
Atom  43H    basis set group =>   2
Atom  44H    basis set group =>   2
Atom  45H    basis set group =>   2
Atom  46C    basis set group =>   1
Atom  47H    basis set group =>   2
Atom  48H    basis set group =>   2
Atom  49C    basis set group =>   1
Atom  50H    basis set group =>   2
Atom  51H    basis set group =>   2
Atom  52C    basis set group =>   1
Atom  53H    basis set group =>   2
Atom  54H    basis set group =>   2
Atom  55H    basis set group =>   2
Atom  56C    basis set group =>   1
Atom  57H    basis set group =>   2
Atom  58H    basis set group =>   2
Atom  59H    basis set group =>   2
Atom  60C    basis set group =>   1
Atom  61H    basis set group =>   2
Atom  62H    basis set group =>   2
Atom  63C    basis set group =>   1
Atom  64H    basis set group =>   2
Atom  65H    basis set group =>   2
Atom  66C    basis set group =>   1
Atom  67H    basis set group =>   2
Atom  68H    basis set group =>   2
Atom  69H    basis set group =>   2
Atom  70C    basis set group =>   1
Atom  71H    basis set group =>   2
Atom  72H    basis set group =>   2
Atom  73H    basis set group =>   2
Atom  74C    basis set group =>   1
Atom  75H    basis set group =>   2
Atom  76H    basis set group =>   2
Atom  77C    basis set group =>   1
Atom  78H    basis set group =>   2
Atom  79H    basis set group =>   2
Atom  80C    basis set group =>   1
Atom  81H    basis set group =>   2
Atom  82H    basis set group =>   2
Atom  83H    basis set group =>   2
Atom  84C    basis set group =>   1
Atom  85H    basis set group =>   2
Atom  86H    basis set group =>   2
Atom  87H    basis set group =>   2
Atom  88C    basis set group =>   1
Atom  89H    basis set group =>   2
Atom  90H    basis set group =>   2
Atom  91C    basis set group =>   1
Atom  92H    basis set group =>   2
Atom  93H    basis set group =>   2
Atom  94C    basis set group =>   1
Atom  95H    basis set group =>   2
Atom  96H    basis set group =>   2
Atom  97H    basis set group =>   2
Atom  98C    basis set group =>   1
Atom  99H    basis set group =>   2
Atom 100H    basis set group =>   2
Atom 101H    basis set group =>   2
Atom 102C    basis set group =>   1
Atom 103H    basis set group =>   2
Atom 104H    basis set group =>   2
Atom 105C    basis set group =>   1
Atom 106H    basis set group =>   2
Atom 107H    basis set group =>   2
Atom 108C    basis set group =>   1
Atom 109H    basis set group =>   2
Atom 110H    basis set group =>   2
Atom 111H    basis set group =>   2
Atom 112C    basis set group =>   1
Atom 113H    basis set group =>   2
Atom 114H    basis set group =>   2
Atom 115H    basis set group =>   2
Atom 116C    basis set group =>   1
Atom 117H    basis set group =>   2
Atom 118H    basis set group =>   2
Atom 119C    basis set group =>   1
Atom 120H    basis set group =>   2
Atom 121H    basis set group =>   2
Atom 122C    basis set group =>   1
Atom 123H    basis set group =>   2
Atom 124H    basis set group =>   2
Atom 125H    basis set group =>   2
Atom 126C    basis set group =>   1
Atom 127H    basis set group =>   2
Atom 128H    basis set group =>   2
Atom 129H    basis set group =>   2
Atom 130C    basis set group =>   1
Atom 131H    basis set group =>   2
Atom 132H    basis set group =>   2
Atom 133C    basis set group =>   1
Atom 134H    basis set group =>   2
Atom 135H    basis set group =>   2
Atom 136C    basis set group =>   1
Atom 137H    basis set group =>   2
Atom 138H    basis set group =>   2
Atom 139H    basis set group =>   2
Atom 140C    basis set group =>   1
Atom 141H    basis set group =>   2
Atom 142H    basis set group =>   2
Atom 143H    basis set group =>   2
Atom 144C    basis set group =>   1
Atom 145H    basis set group =>   2
Atom 146H    basis set group =>   2
Atom 147C    basis set group =>   1
Atom 148H    basis set group =>   2
Atom 149H    basis set group =>   2
Atom 150C    basis set group =>   1
Atom 151H    basis set group =>   2
Atom 152H    basis set group =>   2
Atom 153H    basis set group =>   2
Atom 154C    basis set group =>   1
Atom 155H    basis set group =>   2
Atom 156H    basis set group =>   2
Atom 157H    basis set group =>   2
Atom 158C    basis set group =>   1
Atom 159H    basis set group =>   2
Atom 160H    basis set group =>   2
Atom 161C    basis set group =>   1
Atom 162H    basis set group =>   2
Atom 163H    basis set group =>   2
Atom 164C    basis set group =>   1
Atom 165H    basis set group =>   2
Atom 166H    basis set group =>   2
Atom 167H    basis set group =>   2
Atom 168C    basis set group =>   1
Atom 169H    basis set group =>   2
Atom 170H    basis set group =>   2
Atom 171H    basis set group =>   2
Atom 172C    basis set group =>   1
Atom 173H    basis set group =>   2
Atom 174H    basis set group =>   2
Atom 175C    basis set group =>   1
Atom 176H    basis set group =>   2
Atom 177H    basis set group =>   2
Atom 178C    basis set group =>   1
Atom 179H    basis set group =>   2
Atom 180H    basis set group =>   2
Atom 181H    basis set group =>   2
Atom 182C    basis set group =>   1
Atom 183H    basis set group =>   2
Atom 184H    basis set group =>   2
Atom 185H    basis set group =>   2
Atom 186C    basis set group =>   1
Atom 187H    basis set group =>   2
Atom 188H    basis set group =>   2
Atom 189C    basis set group =>   1
Atom 190H    basis set group =>   2
Atom 191H    basis set group =>   2
Atom 192C    basis set group =>   1
Atom 193H    basis set group =>   2
Atom 194H    basis set group =>   2
Atom 195H    basis set group =>   2
Atom 196C    basis set group =>   1
Atom 197H    basis set group =>   2
Atom 198H    basis set group =>   2
Atom 199H    basis set group =>   2
Atom 200C    basis set group =>   1
Atom 201H    basis set group =>   2
Atom 202H    basis set group =>   2
Atom 203C    basis set group =>   1
Atom 204H    basis set group =>   2
Atom 205H    basis set group =>   2
Atom 206C    basis set group =>   1
Atom 207H    basis set group =>   2
Atom 208H    basis set group =>   2
Atom 209H    basis set group =>   2
Atom 210C    basis set group =>   1
Atom 211H    basis set group =>   2
Atom 212H    basis set group =>   2
Atom 213H    basis set group =>   2
Atom 214C    basis set group =>   1
Atom 215H    basis set group =>   2
Atom 216H    basis set group =>   2
Atom 217C    basis set group =>   1
Atom 218H    basis set group =>   2
Atom 219H    basis set group =>   2
Atom 220C    basis set group =>   1
Atom 221H    basis set group =>   2
Atom 222H    basis set group =>   2
Atom 223H    basis set group =>   2
---------------------------------
AUXILIARY/J BASIS SET INFORMATION
---------------------------------
There are 2 groups of distinct atoms

 Group   1 Type C   : 12s5p4d2f1g contracted to 6s4p3d1f1g pattern {711111/2111/211/2/1}
 Group   2 Type H   : 5s2p1d contracted to 3s1p1d pattern {311/2/1}

Atom   0C    basis set group =>   1
Atom   1H    basis set group =>   2
Atom   2H    basis set group =>   2
Atom   3H    basis set group =>   2
Atom   4C    basis set group =>   1
Atom   5H    basis set group =>   2
Atom   6H    basis set group =>   2
Atom   7C    basis set group =>   1
Atom   8H    basis set group =>   2
Atom   9H    basis set group =>   2
Atom  10C    basis set group =>   1
Atom  11H    basis set group =>   2
Atom  12H    basis set group =>   2
Atom  13H    basis set group =>   2
Atom  14C    basis set group =>   1
Atom  15H    basis set group =>   2
Atom  16H    basis set group =>   2
Atom  17H    basis set group =>   2
Atom  18C    basis set group =>   1
Atom  19H    basis set group =>   2
Atom  20H    basis set group =>   2
Atom  21C    basis set group =>   1
Atom  22H    basis set group =>   2
Atom  23H    basis set group =>   2
Atom  24C    basis set group =>   1
Atom  25H    basis set group =>   2
Atom  26H    basis set group =>   2
Atom  27H    basis set group =>   2
Atom  28C    basis set group =>   1
Atom  29H    basis set group =>   2
Atom  30H    basis set group =>   2
Atom  31H    basis set group =>   2
Atom  32C    basis set group =>   1
Atom  33H    basis set group =>   2
Atom  34H    basis set group =>   2
Atom  35C    basis set group =>   1
Atom  36H    basis set group =>   2
Atom  37H    basis set group =>   2
Atom  38C    basis set group =>   1
Atom  39H    basis set group =>   2
Atom  40H    basis set group =>   2
Atom  41H    basis set group =>   2
Atom  42C    basis set group =>   1
Atom  43H    basis set group =>   2
Atom  44H    basis set group =>   2
Atom  45H    basis set group =>   2
Atom  46C    basis set group =>   1
Atom  47H    basis set group =>   2
Atom  48H    basis set group =>   2
Atom  49C    basis set group =>   1
Atom  50H    basis set group =>   2
Atom  51H    basis set group =>   2
Atom  52C    basis set group =>   1
Atom  53H    basis set group =>   2
Atom  54H    basis set group =>   2
Atom  55H    basis set group =>   2
Atom  56C    basis set group =>   1
Atom  57H    basis set group =>   2
Atom  58H    basis set group =>   2
Atom  59H    basis set group =>   2
Atom  60C    basis set group =>   1
Atom  61H    basis set group =>   2
Atom  62H    basis set group =>   2
Atom  63C    basis set group =>   1
Atom  64H    basis set group =>   2
Atom  65H    basis set group =>   2
Atom  66C    basis set group =>   1
Atom  67H    basis set group =>   2
Atom  68H    basis set group =>   2
Atom  69H    basis set group =>   2
Atom  70C    basis set group =>   1
Atom  71H    basis set group =>   2
Atom  72H    basis set group =>   2
Atom  73H    basis set group =>   2
Atom  74C    basis set group =>   1
Atom  75H    basis set group =>   2
Atom  76H    basis set group =>   2
Atom  77C    basis set group =>   1
Atom  78H    basis set group =>   2
Atom  79H    basis set group =>   2
Atom  80C    basis set group =>   1
Atom  81H    basis set group =>   2
Atom  82H    basis set group =>   2
Atom  83H    basis set group =>   2
Atom  84C    basis set group =>   1
Atom  85H    basis set group =>   2
Atom  86H    basis set group =>   2
Atom  87H    basis set group =>   2
Atom  88C    basis set group =>   1
Atom  89H    basis set group =>   2
Atom  90H    basis set group =>   2
Atom  91C    basis set group =>   1
Atom  92H    basis set group =>   2
Atom  93H    basis set group =>   2
Atom  94C    basis set group =>   1
Atom  95H    basis set group =>   2
Atom  96H    basis set group =>   2
Atom  97H    basis set group =>   2
Atom  98C    basis set group =>   1
Atom  99H    basis set group =>   2
Atom 100H    basis set group =>   2
Atom 101H    basis set group =>   2
Atom 102C    basis set group =>   1
Atom 103H    basis set group =>   2
Atom 104H    basis set group =>   2
Atom 105C    basis set group =>   1
Atom 106H    basis set group =>   2
Atom 107H    basis set group =>   2
Atom 108C    basis set group =>   1
Atom 109H    basis set group =>   2
Atom 110H    basis set group =>   2
Atom 111H    basis set group =>   2
Atom 112C    basis set group =>   1
Atom 113H    basis set group =>   2
Atom 114H    basis set group =>   2
Atom 115H    basis set group =>   2
Atom 116C    basis set group =>   1
Atom 117H    basis set group =>   2
Atom 118H    basis set group =>   2
Atom 119C    basis set group =>   1
Atom 120H    basis set group =>   2
Atom 121H    basis set group =>   2
Atom 122C    basis set group =>   1
Atom 123H    basis set group =>   2
Atom 124H    basis set group =>   2
Atom 125H    basis set group =>   2
Atom 126C    basis set group =>   1
Atom 127H    basis set group =>   2
Atom 128H    basis set group =>   2
Atom 129H    basis set group =>   2
Atom 130C    basis set group =>   1
Atom 131H    basis set group =>   2
Atom 132H    basis set group =>   2
Atom 133C    basis set group =>   1
Atom 134H    basis set group =>   2
Atom 135H    basis set group =>   2
[...]
  39   C   :    0.009708224   -0.017075496    0.000061451
  40   H   :   -0.003133924    0.004591053   -0.003047351
  41   H   :   -0.003095451    0.004563345    0.002904485
  42   H   :   -0.007424629    0.001382813   -0.000023112
  43   C   :   -0.009735215    0.016965521    0.000066963
  44   H   :    0.003155745   -0.004489562   -0.003083771
  45   H   :    0.003116202   -0.004470342    0.002937196
  46   H   :    0.007407021   -0.001400350   -0.000024338
  47   C   :    0.004755868   -0.032149933    0.000072830
  48   H   :   -0.000775922    0.006742114    0.002966116
  49   H   :   -0.000755171    0.006790505   -0.003116741
  50   C   :   -0.004752174    0.032014235    0.000087311
  51   H   :    0.000769166   -0.006662895   -0.003206165
  52   H   :    0.000791094   -0.006622148    0.003051765
  53   C   :    0.009743097   -0.017067949    0.000056718
  54   H   :   -0.003146685    0.004573045   -0.003042628
  55   H   :   -0.003099032    0.004550203    0.002903403
  56   H   :   -0.007450832    0.001428593   -0.000026794
  57   C   :   -0.009666940    0.017060579    0.000060331
  58   H   :    0.003136571   -0.004589641   -0.003049532
  59   H   :    0.003091027   -0.004566177    0.002911313
  60   H   :    0.007429182   -0.001385773   -0.000027796
  61   C   :    0.004746480   -0.032202689    0.000077579
  62   H   :   -0.000771014    0.006753313    0.002963918
  63   H   :   -0.000745608    0.006802124   -0.003111639
  64   C   :   -0.004786544    0.032220102    0.000076687
  65   H   :    0.000750633   -0.006802227   -0.003116216
  66   H   :    0.000770488   -0.006752572    0.002968128
  67   C   :    0.009711348   -0.017073269    0.000062040
  68   H   :   -0.003134429    0.004590766   -0.003047581
  69   H   :   -0.003096317    0.004563087    0.002904500
  70   H   :   -0.007424968    0.001382652   -0.000022619
  71   C   :   -0.009733226    0.016955798    0.000056201
  72   H   :    0.003150996   -0.004488714   -0.003075810
  73   H   :    0.003112824   -0.004470564    0.002938495
  74   H   :    0.007401049   -0.001394075   -0.000024850
  75   C   :    0.004749908   -0.032136099    0.000085717
  76   H   :   -0.000774279    0.006746027    0.002968095
  77   H   :   -0.000750877    0.006789133   -0.003121736
  78   C   :   -0.004743768    0.031993659    0.000062831
  79   H   :    0.000774118   -0.006666236   -0.003190799
  80   H   :    0.000787366   -0.006618135    0.003050171
  81   C   :    0.009753219   -0.017056003    0.000067660
  82   H   :   -0.003139187    0.004577011   -0.003050190
  83   H   :   -0.003105425    0.004551732    0.002903569
  84   H   :   -0.007448090    0.001420233   -0.000021371
  85   C   :   -0.009728923    0.017050820   -0.000057701
  86   H   :    0.003114858   -0.004547370   -0.002910008
  87   H   :    0.003149618   -0.004574521    0.003049810
  88   H   :    0.007451727   -0.001436745    0.000019546
  89   C   :    0.004712688   -0.031985962   -0.000074188
  90   H   :   -0.000778152    0.006662779    0.003192940
  91   H   :   -0.000792723    0.006616770   -0.003048684
  92   C   :   -0.004795441    0.032174740   -0.000071225
  93   H   :    0.000772169   -0.006742512   -0.002981642
  94   H   :    0.000755648   -0.006793969    0.003127340
  95   C   :    0.009760254   -0.016975767   -0.000061782
  96   H   :   -0.003114745    0.004462732   -0.002935501
  97   H   :   -0.003143515    0.004486050    0.003077858
  98   H   :   -0.007398265    0.001394517    0.000018321
  99   C   :   -0.009719319    0.017049388   -0.000059949
 100   H   :    0.003109204   -0.004550914   -0.002910258
 101   H   :    0.003140143   -0.004579111    0.003051900
 102   H   :    0.007457451   -0.001426876    0.000018528
 103   C   :    0.004707244   -0.031986755   -0.000071990
 104   H   :   -0.000776424    0.006663200    0.003192272
 105   H   :   -0.000789208    0.006616332   -0.003048363
 106   C   :   -0.004796658    0.032174098   -0.000073899
 107   H   :    0.000771356   -0.006744128   -0.002978319
 108   H   :    0.000752989   -0.006793986    0.003124110
 109   C   :    0.009759799   -0.016978849   -0.000058601
 110   H   :   -0.003114493    0.004464188   -0.002936101
 111   H   :   -0.003147268    0.004486834    0.003075232
 112   H   :   -0.007400717    0.001398430    0.000019338
 113   C   :   -0.009659288    0.017156528    0.000006357
 114   H   :    0.003123039   -0.004602253   -0.003034582
 115   H   :    0.003130793   -0.004597415    0.003027219
 116   H   :    0.007415784   -0.001420890    0.000005127
 117   C   :    0.004767293   -0.032314392   -0.000007633
 118   H   :   -0.000756562    0.006800126    0.003085343
 119   H   :   -0.000764242    0.006799359   -0.003086468
 120   C   :   -0.004803061    0.032338217    0.000011465
 121   H   :    0.000758497   -0.006809443   -0.003098585
 122   H   :    0.000756870   -0.006811382    0.003091912
 123   C   :    0.009685347   -0.017165898   -0.000003149
 124   H   :   -0.003115074    0.004597180   -0.003026213
 125   H   :   -0.003118666    0.004597928    0.003025016
 126   H   :   -0.007411901    0.001405399    0.000002879
 127   C   :   -0.009655104    0.017146016    0.000006656
 128   H   :    0.003112985   -0.004603312   -0.003023902
 129   H   :    0.003117522   -0.004601574    0.003019160
 130   H   :    0.007420098   -0.001399525    0.000001869
 131   C   :    0.004754578   -0.032305924   -0.000009553
 132   H   :   -0.000755935    0.006807849    0.003095157
 133   H   :   -0.000761404    0.006805531   -0.003094132
 134   C   :   -0.004800845    0.032314832    0.000010796
 135   H   :    0.000759976   -0.006794526   -0.003084371
 136   H   :    0.000758543   -0.006796640    0.003078327
 137   C   :    0.009699232   -0.017164934   -0.000002974
 138   H   :   -0.003120829    0.004603449   -0.003029971
 139   H   :   -0.003125225    0.004604307    0.003028826
 140   H   :   -0.007410882    0.001406579    0.000002589
 141   C   :   -0.009646971    0.017158513   -0.000004409
 142   H   :    0.003116410   -0.004596961   -0.003026424
 143   H   :    0.003120662   -0.004597954    0.003025764
 144   H   :    0.007413798   -0.001416536    0.000003094
 145   C   :    0.004762975   -0.032318921    0.000012505
 146   H   :   -0.000754914    0.006812004    0.003088941
 147   H   :   -0.000756827    0.006808560   -0.003095420
 148   C   :   -0.004802221    0.032330235   -0.000010355
 149   H   :    0.000761991   -0.006798399   -0.003086251
 150   H   :    0.000756462   -0.006801168    0.003087296
 151   C   :    0.009695096   -0.017165714    0.000007563
 152   H   :   -0.003119260    0.004602686   -0.003032785
 153   H   :   -0.003124076    0.004601789    0.003028000
 154   H   :   -0.007413127    0.001407517    0.000001730
 155   C   :   -0.009740324    0.016874473    0.000000221
 156   H   :    0.003122520   -0.004453701   -0.002958405
 157   H   :    0.003122823   -0.004451870    0.002957119
 158   H   :    0.007420185   -0.001375097    0.000000864
 159   C   :    0.004741982   -0.032060470    0.000001561
 160   H   :   -0.000768314    0.006736105    0.003009472
 161   H   :   -0.000768402    0.006738544   -0.003011528
 162   C   :   -0.004742515    0.031903867    0.000002490
 163   H   :    0.000787667   -0.006610423   -0.003074693
 164   H   :    0.000785225   -0.006607787    0.003072183
 165   C   :    0.009774209   -0.016980983   -0.000000718
 166   H   :   -0.003121460    0.004535491   -0.002937929
 167   H   :   -0.003125111    0.004530803    0.002935048
 168   H   :   -0.007465370    0.001411179    0.000004022
 169   C   :   -0.009718125    0.016963680   -0.000061461
 170   H   :    0.003112632   -0.004464672   -0.002937077
 171   H   :    0.003141509   -0.004488655    0.003079200
 172   H   :    0.007407763   -0.001396880    0.000018129
 173   C   :    0.004752889   -0.032155435   -0.000072798
 174   H   :   -0.000751952    0.006795266    0.003126281
 175   H   :   -0.000769334    0.006742581   -0.002979262
 176   C   :   -0.004747444    0.032000632   -0.000073869
 177   H   :    0.000788143   -0.006614281   -0.003046943
 178   H   :    0.000774723   -0.006662362    0.003192434
 179   C   :    0.009755349   -0.017062330   -0.000059606
 180   H   :   -0.003109177    0.004547888   -0.002912276
 181   H   :   -0.003139952    0.004577260    0.003054373
 182   H   :   -0.007450235    0.001425094    0.000018201
 183   C   :   -0.009715342    0.017050915   -0.000057229
 184   H   :    0.003103509   -0.004546086   -0.002902466
 185   H   :    0.003151690   -0.004570941    0.003044381
 186   H   :    0.007448511   -0.001436642    0.000025303
 187   C   :    0.004713155   -0.031997887   -0.000090951
 188   H   :   -0.000771687    0.006664334    0.003210335
 189   H   :   -0.000793128    0.006621099   -0.003052502
 190   C   :   -0.004798183    0.032169541   -0.000073672
 191   H   :    0.000776128   -0.006738432   -0.002967335
 192   H   :    0.000754561   -0.006790009    0.003119732
 193   C   :    0.009771056   -0.016981078   -0.000069170
 194   H   :   -0.003116542    0.004467617   -0.002936830
 195   H   :   -0.003157305    0.004487650    0.003084865
 196   H   :   -0.007399948    0.001400211    0.000024770
 197   C   :   -0.009767570    0.016956717   -0.000062646
 198   H   :    0.003120861   -0.004454129   -0.002932941
 199   H   :    0.003162777   -0.004475269    0.003081382
 200   H   :    0.007432241   -0.001443396    0.000022934
 201   C   :    0.004716960   -0.031947224   -0.000088036
 202   H   :   -0.000775301    0.006653341    0.003213396
 203   H   :   -0.000793434    0.006609723   -0.003051954
 204   C   :   -0.004760178    0.031962221   -0.000082700
 205   H   :    0.000794758   -0.006608150   -0.003049685
 206   H   :    0.000772020   -0.006651388    0.003208267
 207   C   :    0.009801674   -0.016975039   -0.000064323
 208   H   :   -0.003119228    0.004456382   -0.002936145
 209   H   :   -0.003168763    0.004472696    0.003081691
 210   H   :   -0.007427185    0.001444216    0.000027935
 211   C   :   -0.009727575    0.016967704   -0.000068704
 212   H   :    0.003111478   -0.004470533   -0.002942352
 213   H   :    0.003159259   -0.004487214    0.003087244
 214   H   :    0.007406991   -0.001402398    0.000029295
 215   C   :    0.004756612   -0.032150539   -0.000073464
 216   H   :   -0.000750040    0.006789093    0.003116959
 217   H   :   -0.000776009    0.006738344   -0.002965717
 218   C   :   -0.004749464    0.032016195   -0.000092067
 219   H   :    0.000788329   -0.006619730   -0.003052209
 220   H   :    0.000771611   -0.006664676    0.003211408
 221   C   :    0.009744285   -0.017063965   -0.000058246
 222   H   :   -0.003100864    0.004545362   -0.002901420
 223   H   :   -0.003141498    0.004575262    0.003046634
 224   H   :   -0.007449090    0.001426453    0.000021127

Difference to translation invariance:
           :   -0.0000000003    0.0000000005    0.0000000002

Difference to rotation invariance:
           :    0.0000050223    0.0000059481    0.0014034988

Norm of the Cartesian gradient     ...    0.2322872852
RMS gradient                       ...    0.0089606766
MAX gradient                       ...    0.0323382172

-------
TIMINGS
-------

Total SCF gradient time     ....       98.506 sec

Densities                   ....       0.074 sec  (  0.1%)
One electron gradient       ....       3.293 sec  (  3.3%)
RI-J Coulomb gradient       ....       7.910 sec  (  8.0%)
COSX gradient               ....      57.670 sec  ( 58.5%)
XC gradient                 ....      29.514 sec  ( 30.0%)

Maximum memory used throughout the entire SCFGRAD-calculation: 370.7 MB


           ************************************************************
           *        Program running with 24 parallel MPI-processes    *
           *              working on a common directory               *
           ************************************************************

------------------------------------------------------------------------------
                              ORCA PROPERTY CALCULATIONS
------------------------------------------------------------------------------

GBWName                                 ... butane_cut.gbw
Number of atoms                         ...    224
Number of basis functions               ...   1696
Max core memory                         ...   1024 MB

Electric properties:
Dipole moment                           ... YES
Quadrupole moment                       ...  NO
Static polarizability (Dipole/Dipole)   ...  NO
Static polarizability (Dipole/Quad.)    ...  NO
Static polarizability (Quad./Quad.)     ...  NO
Static polarizability (Velocity)        ...  NO

Atomic electric properties:
Dipole moment                           ...  NO
Quadrupole moment                       ...  NO
Static polarizability                   ...  NO

Choice of electric origin               ... Center of mass
Position of electric origin             ...    94.448467    94.580793    96.423276

General magnetic properties:
Magnetizability                         ...  NO

EPR properties:
g-Tensor (aka g-matrix)                 ...  NO
Zero-Field splitting spin-orbit         ...  NO
Zero-field splitting spin-spin          ...  NO
Hyperfine couplings                     ...  NO (   0 nuclei)
Quadrupole couplings                    ...  NO (   0 nuclei)
Contact density                         ...  NO (   0 nuclei)

NMR properties:
Chemical shifts                         ...  NO (   0 nuclei)
Spin-rotation constants                 ...  NO (   0 nuclei)
Spin-spin couplings                     ...  NO (   0 nuclei,    0 pairs)

Choice of magnetic origin               ... GIAO
Position of magnetic origin             ...     0.000000     0.000000     0.000000

Properties with geometric perturbations:
SCF Hessian                             ...  NO
IR spectrum                             ...  NO
VCD spectrum                            ...  NO
X-ray spectroscopy properties:
SCF XES/XAS/RIXS spectra                ...  NO


-------------
DIPOLE MOMENT
-------------

Method             : SCF
Type of density    : Electron Density
Multiplicity       :   1
Irrep              :   0
Energy             : -2530.1900571628029866 Eh
Relativity type    : 
Basis              : AO
                                X                 Y                 Z
Electronic contribution:     -0.000059576      -0.000496481       0.001416177
Nuclear contribution   :      0.000620381       0.000000000       0.000000000
                        -----------------------------------------
Total Dipole Moment    :      0.000560805      -0.000496481       0.001416178
                        -----------------------------------------
Magnitude (a.u.)       :      0.001602047
Magnitude (Debye)      :      0.004072079



--------------------
Rotational spectrum 
--------------------
 
Rotational constants in cm-1:             0.000520             0.000406             0.000353 
Rotational constants in MHz :            15.579744            12.159088            10.590581 

Dipole components along the rotational axes: 
x,y,z [a.u.] :    -0.000638     0.000123     0.001464 
x,y,z [Debye]:    -0.001621     0.000311     0.003722 

 

Dipole moment calculation done in   0.5 sec 

Maximum memory used throughout the entire PROP-calculation: 182.4 MB

--------------------------------
SUGGESTED CITATIONS FOR THIS RUN
--------------------------------

Below you find a list of papers that are relevant to this ORCA run
We neither can nor want to force you to cite these papers, but we appreciate if you do
You receive ORCA, which is the product of decades of hard work by many enthusiastic individuals, for free
The only thing we kindly ask in return is that you cite our papers,
We deeply appreciate it, if you show your appreciation for ORCA by not just citing the generic ORCA reference.

Please note that relegating all ORCA citations to the supporting information does *not* help us.
SI sections are not indexed - citations you put there will not count into any citation statistics
But we need these citations in order to attract the funding resources that allow us to do what we are doing

Therefore, if you are a happy ORCA user, please consider citing a few of the papers listed below in the main body of your paper

In addition to the list printed below, the program has created the file butane_cut.bibtex that contains the list in bibtex format
You can import this file easily into all common literature databanks and citation aid programs


List of essential papers. We consider these as the minimum necessary citations

  1. Neese,F.
     Software update: the ORCA program system, version 5.0
     WIRES Comput. Molec. Sci., 2022 12(1)e1606
     doi.org/10.1002/wcms.1606

List of papers to cite with high priority. The work reported in these papers was absolutely
necessary for this run to complete.
Our perspective: the developers of density functionals and basis sets usually get cited in chemistry papers
Good! But without the algorithms to do something with them, the functionals or basis sets would not do anything.
Hence, in our opinion, the algorithm design and method developments papers are equally worthy of getting cited

  1. Neese,F.
     An improvement of the resolution of the identity approximation for the formation of the Coulomb matrix
     J. Comp. Chem., 2003 24(14)1740-1747
     doi.org/10.1002/jcc.10318
  2. Neese,F.; Wennmohs,F.; Hansen,A.; Becker,U.
     Efficient, approximate and parallel Hartree-Fock and hybrid DFT calculations. A 'chain-of-spheres' algorithm for the Hartree-Fock exchange
     Chem. Phys., 2009 356(1-3)98-109
     doi.org/10.1016/j.chemphys.2008.10.036
  3. Helmich-Paris,B.; de Souza,B.; Neese,F.; Izsák,R.
     An improved chain of spheres for exchange algorithm
     J. Chem. Phys., 2021 155 104109
     doi.org/doi: 10.1063/5.0058766.
  4. Neese,F.
     The SHARK Integral Generation and Digestion System
     J. Comp. Chem., 2022  1-16
     doi.org/10.1002/jcc.26942

List of suggested additional citations. These are papers that are important in the 'surrounding' of 
of this run, or papers that preceded the highly important papers. If you like your results we are grateful for a citation.

  1. Izsak,R.; Neese,F.
     An overlap fitted chain of spheres exchange method
     J. Chem. Phys., 2011 135 144105
     doi.org/10.1063/1.3646921
  2. Izsak,R.; Hansen,A.; Neese,F.
     The resolution of identity and chain of spheres approximations for the LPNO-CCSD singles Fock term
     Molec. Phys., 2012 110 2413-2417
     doi.org/10.1080/00268976.2012.687466
  3. Neese,F.
     The ORCA program system
     WIRES Comput. Molec. Sci., 2012 2(1)73-78
     doi.org/10.1002/wcms.81
  4. Izsak,R.; Neese,F.; Klopper,W.
     Robust fitting techniques in the chain of spheres approximation to the Fock exchange: The role of the complementary space
     J. Chem. Phys., 2013 139 
     doi.org/10.1063/1.4819264
  5. Neese,F.
     Software update: the ORCA program system, version 4.0
     WIRES Comput. Molec. Sci., 2018 8(1)1-6
     doi.org/10.1002/wcms.1327
  6. Neese,F.; Wennmohs,F.; Becker,U.; Riplinger,C.
     The ORCA quantum chemistry program package
     J. Chem. Phys., 2020 152 Art. No. L224108
     doi.org/10.1063/5.0004608

List of optional additional citations

  1. Neese,F.
     Approximate second-order SCF convergence for spin unrestricted wavefunctions
     Chem. Phys. Lett., 2000 325(1-3)93-98
     doi.org/10.1016/s0009-2614(00)00662-x

Timings for individual modules:

Sum of individual times          ...      321.773 sec (=   5.363 min)
Startup calculation              ...       32.844 sec (=   0.547 min)  10.2 %
SCF iterations                   ...      181.232 sec (=   3.021 min)  56.3 %
Property calculations            ...        2.874 sec (=   0.048 min)   0.9 %
SCF Gradient evaluation          ...      104.823 sec (=   1.747 min)  32.6 %
                             ****ORCA TERMINATED NORMALLY****
TOTAL RUN TIME: 0 days 0 hours 5 minutes 25 seconds 534 msec
