BEGIN_CFG
Size
224
AtomData: id type cartes_x cartes_y cartes_z fx fy fz
1 0 52.0 42.0431 46.8 -6.234849723726379 7.670333934730967 -0.003382388995270432
2 2 52.0 42.6742 47.6924 2.8158126246275126 0.02649529293268335 2.7209808001061964
3 2 52.0 42.6742 45.9076 2.8178018356875034 0.02528502327318713 -2.7135560713674414
4 2 51.1076 41.4121 46.8 -0.2446970359499795 -3.727972992830687 0.0011872839976253113
5 1 53.2533 41.1569 46.8 1.5928958433189795 -12.778890856953277 -0.0032423667194882884
6 2 53.2533 40.5258 45.9076 0.2816675075115921 1.248338871928558 -3.646356713137378
7 2 53.2533 40.5258 47.6924 0.28086198090486164 1.2459129847150812 3.6535624353125797
8 1 54.5066 42.0431 46.8 -1.5886536774411983 12.76972533713775 -0.004463229323828534
9 2 54.5066 42.6742 47.6924 -0.2796880666434477 -1.2396644842305458 3.650005159883253
10 2 54.5066 42.6742 45.9076 -0.28072962051636985 -1.2419156392761534 -3.6420543320245837
11 0 55.76 41.1569 46.8 6.2327206960788555 -7.674112890671089 -0.0028206543861467727
12 2 55.76 40.5258 47.6924 -2.815821263533987 -0.022064819462572244 2.7225455220414787
13 2 55.76 40.5258 45.9076 -2.8175957874836626 -0.021044605745525802 -2.7154359077008117
14 2 56.6524 41.7879 46.8 0.24202766527126995 3.7300362516604637 0.0011187383885112375
15 0 41.6 47.2431 46.8 -6.235308562788738 7.67049781684368 -0.003473508889756543
16 2 41.6 47.8742 47.6924 2.8162862732438287 0.026615517714460274 2.721217598703323
17 2 41.6 47.8742 45.9076 2.818019556699498 0.02537850858254148 -2.713713937098859
18 2 40.7076 46.6121 46.8 -0.24493121202192653 -3.728374907670023 0.0011196639856335248
19 1 42.8533 46.3569 46.8 1.5931192207578329 -12.778883657864547 -0.0031454361319565496
20 2 42.8533 45.7258 45.9076 0.2814888158449219 1.2484062862523004 -3.6463232887968497
21 2 42.8533 45.7258 47.6924 0.28082675679215113 1.246017114391342 3.653471881060779
22 1 44.1066 47.2431 46.8 -1.5885667227337625 12.76971047616173 -0.004414995429343399
23 2 44.1066 47.8742 47.6924 -0.2795685617705436 -1.2398400391514126 3.650025368753757
24 2 44.1066 47.8742 45.9076 -0.2808472741950292 -1.2418215883241133 -3.6422025304082797
25 0 45.36 46.3569 46.8 6.232700692896601 -7.6739526081027405 -0.0027178102614443225
26 2 45.36 45.7258 47.6924 -2.8155480066946534 -0.021977967599261183 2.7223182879479495
27 2 45.36 45.7258 45.9076 -2.817653945836182 -0.02115068946015619 -2.715470977547335
28 2 46.2524 46.9879 46.8 0.24227963337679043 3.7297911226892357 0.0013699865851588301
29 0 52.0 47.2431 46.8 -6.237574064589742 7.669290581085862 -0.003106972429317873
30 2 52.0 47.8742 47.6924 2.816149130603538 0.0271235162684271 2.7210908433196277
31 2 52.0 47.8742 45.9076 2.818519430567614 0.0259305244218809 -2.71396066015402
32 2 51.1076 46.6121 46.8 -0.24362581154708074 -3.7299122216460727 0.0014052106978692503
33 1 53.2533 46.3569 46.8 1.5907636789256523 -12.76730376937751 -0.003973588446121401
34 2 53.2533 45.7258 45.9076 0.28072463257632174 1.2415198436622368 -3.641948351154078
35 2 53.2533 45.7258 47.6924 0.27946412356190853 1.239064388762908 3.649533053928807
36 1 54.5066 47.2431 46.8 -1.588787169115062 12.766319036883486 -0.0039897349736995645
37 2 54.5066 47.8742 47.6924 -0.2795306637105909 -1.238894798801274 3.649693953561904
38 2 54.5066 47.8742 45.9076 -0.28057221758351303 -1.2414643078348977 -3.642053560693648
39 0 55.76 46.3569 46.8 6.235713100153255 -7.6688927800115145 -0.0031599371535394644
40 2 55.76 45.7258 47.6924 -2.8165571646682945 -0.027302413623346705 2.721081073127781
41 2 55.76 45.7258 45.9076 -2.8185355256731297 -0.02587761111972156 -2.7137346087679246
42 2 56.6524 46.9879 46.8 0.24332473537201488 3.7304829036940457 0.001188466705059451
43 0 41.6 52.4431 46.8 -6.234325167268335 7.674547921318579 -0.0034433755612190853
44 2 41.6 53.0742 47.6924 2.8154350838457303 0.022083537093268046 2.722953864638609
45 2 41.6 53.0742 45.9076 2.817468466457281 0.021095205054879357 -2.715416675849492
46 2 40.7076 51.8121 46.8 -0.24241929569813608 -3.7295811149865936 0.001251510153501896
47 1 42.8533 51.5569 46.8 1.5905134591702517 -12.77028414068932 -0.003745068801033088
48 2 42.8533 50.9258 45.9076 0.2808395094636142 1.2420965935135673 -3.641953801892687
49 2 42.8533 50.9258 47.6924 0.27977245024776587 1.2396082284943337 3.649699250034326
50 1 44.1066 52.4431 46.8 -1.5907034122685768 12.777262011706243 -0.004489711685939344
51 2 44.1066 53.0742 47.6924 -0.28049210201036995 -1.2461701978709614 3.6542976165380137
52 2 44.1066 53.0742 45.9076 -0.28161968499360557 -1.248265492645583 -3.646358050110999
53 0 45.36 51.5569 46.8 6.233919858572884 -7.669280862316078 -0.002916556532431444
54 2 45.36 50.9258 47.6924 -2.8159009677306317 -0.026376405124527547 2.7208382067272967
55 2 45.36 50.9258 45.9076 -2.81835138326785 -0.025201822376303 -2.7136789700964603
56 2 46.2524 52.1879 46.8 0.24467214767180157 3.728128801679611 0.001377802738636298
57 0 52.0 52.4431 46.8 -6.237836008575359 7.669659842915606 -0.0031023444437061265
58 2 52.0 53.0742 47.6924 2.816421050469251 0.027229805671306923 2.721193224645769
59 2 52.0 53.0742 45.9076 2.818763016876971 0.02602323840029999 -2.714085718609658
60 2 51.1076 51.8121 46.8 -0.24355886002189953 -3.7303306943894863 0.0014293276451120024
61 1 53.2533 51.5569 46.8 1.5909962094916041 -12.767571318367922 -0.003989272175138598
62 2 53.2533 50.9258 45.9076 0.28058712998159485 1.241520717837297 -3.6418407761996394
63 2 53.2533 50.9258 47.6924 0.279280701065502 1.239010755551876 3.6494368946722107
64 1 54.5066 52.4431 46.8 -1.5889360359855684 12.766675905996202 -0.003943403695521151
65 2 54.5066 53.0742 47.6924 -0.27953909692881646 -1.2390054590794537 3.649672253451592
66 2 54.5066 53.0742 45.9076 -0.28056008197679816 -1.2415588215854991 -3.6420572630821377
67 0 55.76 51.5569 46.8 6.23555245763047 -7.66900729694437 -0.003190224748264038
68 2 55.76 50.9258 47.6924 -2.816531196526807 -0.0272876554914519 2.721092900202122
69 2 55.76 50.9258 45.9076 -2.8184909941671332 -0.025864344227634978 -2.7137353800988597
70 2 56.6524 52.1879 46.8 0.24334216745115184 3.7304911826460843 0.0011631156283202285
71 0 52.0 57.6431 46.8 -6.2344274457503515 7.67504789803082 -0.002889971326196089
72 2 52.0 58.2742 47.6924 2.8156792872198357 0.022039931184394318 2.722544493600232
73 2 52.0 58.2742 45.9076 2.817642170183903 0.021106620752721267 -2.7154834731084865
74 2 51.1076 57.0121 46.8 -0.24211220314177517 -3.729903788427847 0.0012778382494256296
75 1 53.2533 56.7569 46.8 1.5908199346618643 -12.770995513499884 -0.0044077449185519315
76 2 53.2533 56.1258 45.9076 0.2807550230151713 1.2418953789835872 -3.64205556615408
77 2 53.2533 56.1258 47.6924 0.27955164391203013 1.2396787795638793 3.64995610323577
78 1 54.5066 57.6431 46.8 -1.5911356661247003 12.77832007206118 -0.003230899599583791
79 2 54.5066 58.2742 47.6924 -0.28074674406313277 -1.2459983967606463 3.6535074651279262
80 2 54.5066 58.2742 45.9076 -0.2814279835451605 -1.2484718493817981 -3.6462760833436114
81 0 55.76 56.7569 46.8 6.233399364457766 -7.669895150272924 -0.0034792167386777507
82 2 55.76 56.1258 47.6924 -2.8162865303541404 -0.026580345023812096 2.721227060362796
83 2 55.76 56.1258 45.9076 -2.8180226420232395 -0.025280446709637888 -2.7136875061588106
84 2 56.6524 57.3879 46.8 0.2445311483768347 3.7285586901208663 0.0010989408945060197
85 0 52.0 42.0431 52.0 -6.234648714884648 7.6701616708220905 0.002967104419722606
86 2 52.0 42.6742 52.8924 2.817537577709081 0.025056143673662268 2.7140186128182897
87 2 52.0 42.6742 51.1076 2.8157501468217556 0.026452304088557782 -2.7212075199791026
88 2 51.1076 41.4121 52.0 -0.2447181704176058 -3.7277096090273245 -0.001005095630715205
89 1 53.2533 41.1569 52.0 1.5927338638225734 -12.778715867675096 0.0038148999617055855
90 2 53.2533 40.5258 51.1076 0.2809541806626572 1.2461761628301942 -3.65361755976342
91 2 53.2533 40.5258 52.8924 0.28170345153317555 1.2485420404969074 3.6461996187368952
92 1 54.5066 42.0431 52.0 -1.5884785338968304 12.769008513588574 0.0036625363909594606
93 2 54.5066 42.6742 52.8924 -0.2806465224636104 -1.2420761275327514 3.6427521808327508
94 2 54.5066 42.6742 51.1076 -0.27979697857150737 -1.2394301024703491 -3.650244272473186
95 0 55.76 41.1569 52.0 6.233037610249125 -7.67402105086773 0.003176957856177823
96 2 55.76 40.5258 52.8924 -2.817543388402127 -0.020703883160387182 2.7153295154538073
97 2 55.76 40.5258 51.1076 -2.8160639756682846 -0.0219029428102909 -2.722649805983927
98 2 56.6524 41.7879 52.0 0.24196904412018966 3.729881059876288 -0.0009421036043351253
99 0 41.6 47.2431 52.0 -6.235142572371469 7.6702353072153775 0.0030827012158879475
100 2 41.6 47.8742 52.8924 2.8178283180496146 0.025238383462634628 2.7140314683338773
101 2 41.6 47.8742 51.1076 2.816237370862533 0.02668833135474949 -2.7213149920894164
102 2 40.7076 46.6121 52.0 -0.24501251030250365 -3.7282170933606675 -0.0009527479712417537
103 1 42.8533 46.3569 52.0 1.593013805530013 -12.778675089979652 0.0037018742686576924
104 2 42.8533 45.7258 51.1076 0.28086532333891445 1.2461545141419443 -3.6535832098257695
105 2 42.8533 45.7258 52.8924 0.28152270298401133 1.2485645633602172 3.6461831122548807
106 1 44.1066 47.2431 52.0 -1.588415953246949 12.769041526552604 0.0038000389856862244
107 2 44.1066 47.8742 52.8924 -0.2806047163269189 -1.2419930294799921 3.642581305319558
108 2 44.1066 47.8742 51.1076 -0.2796602473077157 -1.2394292282952892 -3.650078179211792
109 0 45.36 46.3569 52.0 6.233061007287495 -7.673862568071564 0.0030133842758386232
110 2 45.36 45.7258 52.8924 -2.8175563467618394 -0.020778753683170476 2.7153603686912176
111 2 45.36 45.7258 51.1076 -2.815870988668281 -0.021943257707174202 -2.7225147716481928
112 2 46.2524 46.9879 52.0 0.24209513101707458 3.729679845346308 -0.00099439984174617
113 0 52.0 47.2431 52.0 -6.23822949019647 7.664725947455077 -0.0003268900503661393
114 2 52.0 47.8742 52.8924 2.8171168938169866 0.02787834072167933 2.7204244648136195
115 2 52.0 47.8742 51.1076 2.816718167145516 0.027629560784024565 -2.7200458441685282
116 2 51.1076 46.6121 52.0 -0.24286990723051904 -3.7285249058259016 -0.00026364091367424823
117 1 53.2533 46.3569 52.0 1.58992596210789 -12.761827319737115 0.0003925046019260429
118 2 53.2533 45.7258 51.1076 0.2798439783364963 1.2391134968324533 -3.6480847001206254
119 2 53.2533 45.7258 52.8924 0.280238899775353 1.2391529375542767 3.6481425499407703
120 1 54.5066 47.2431 52.0 -1.5880866977817147 12.760602189101599 -0.0005895539448557437
121 2 54.5066 47.8742 52.8924 -0.27994348002714575 -1.238634397477528 3.648765631070279
122 2 54.5066 47.8742 51.1076 -0.27985981633170043 -1.238534690098629 -3.6484224916482098
123 0 55.76 46.3569 52.0 6.236889482673662 -7.664244122730847 0.00016192807434357599
124 2 55.76 45.7258 52.8924 -2.8175264705436134 -0.02761747659937211 2.719994113573803
125 2 55.76 45.7258 51.1076 -2.817341762495648 -0.027655940302010712 -2.7199325613651686
126 2 56.6524 46.9879 52.0 0.24267023536240967 3.729321484993783 -0.0001480441175088669
127 0 41.6 52.4431 52.0 -6.238444640105347 7.665266496174512 -0.0003422652470091274
128 2 41.6 53.0742 52.8924 2.8176338912318646 0.02793279668570922 2.7198752771877093
129 2 41.6 53.0742 51.1076 2.817400589334978 0.027843425141342915 -2.7196314337680403
130 2 40.7076 51.8121 52.0 -0.24309174200750183 -3.7296235381880334 -9.61078345342637e-05
131 1 42.8533 51.5569 52.0 1.5905797936306847 -12.762262761761104 0.0004912349616401317
132 2 42.8533 50.9258 51.1076 0.27981173670340215 1.2387163642449157 -3.6485893562405396
133 2 42.8533 50.9258 52.8924 0.28009296396240047 1.2388355605854455 3.6485366486266293
134 1 44.1066 52.4431 52.0 -1.5882006490718847 12.76180469402968 -0.0005551525851428095
135 2 44.1066 53.0742 52.8924 -0.28001953325736306 -1.2394014603816197 3.64803471787602
136 2 44.1066 53.0742 51.1076 -0.2799458454420139 -1.2392927541418095 -3.6477239229311698
137 0 45.36 51.5569 52.0 6.236175487337916 -7.664293693598953 0.00015292921343226337
138 2 45.36 50.9258 52.8924 -2.8172305365747823 -0.027939841508251323 2.7201873576841185
139 2 45.36 50.9258 51.1076 -2.817004485188687 -0.027983961637748578 -2.7201284794227263
140 2 46.2524 52.1879 52.0 0.2426178362808738 3.7292608069602085 -0.00013313171942707798
141 0 52.0 52.4431 52.0 -6.238862855738448 7.66462387466131 0.00022671987290613622
142 2 52.0 53.0742 52.8924 2.8174577706683124 0.027606215167717163 2.720004963628959
143 2 52.0 53.0742 51.1076 2.817239124059195 0.02765727727563183 -2.719971025067807
144 2 51.1076 51.8121 52.0 -0.24276778301468976 -3.7287487974853786 -0.00015909986091439907
145 1 53.2533 51.5569 52.0 1.5901480025731223 -12.761594429216727 -0.0006430328897010316
146 2 53.2533 50.9258 51.1076 0.2797592347777416 1.2385027055758466 -3.648269716700965
147 2 53.2533 50.9258 52.8924 0.27985760518301933 1.238679803158584 3.6486028802429376
148 1 54.5066 52.4431 52.0 -1.5881298923140896 12.761012640003285 0.0005324754556460725
149 2 54.5066 53.0742 52.8924 -0.2801231487130006 -1.239202302734134 3.6481313913532403
150 2 54.5066 53.0742 51.1076 -0.27983883613026117 -1.2390599150434836 -3.648185127408397
151 0 55.76 51.5569 52.0 6.2363881689878005 -7.66425358439032 -0.0003889050575616223
152 2 55.76 50.9258 52.8924 -2.8173112177906114 -0.027900606474677403 2.7203320593675744
153 2 55.76 50.9258 51.1076 -2.8170635691383286 -0.027854480884748428 -2.7200860047992244
154 2 56.6524 52.1879 52.0 0.24273327881085216 3.7292125730657233 -8.89601678673767e-05
155 0 41.6 57.6431 52.0 -6.234062451951783 7.6792297972515255 -1.1364275779921724e-05
156 2 41.6 58.2742 52.8924 2.817143581867347 0.020239490515294167 2.7165072863698976
157 2 41.6 58.2742 51.1076 2.8171280009824544 0.020145336719129242 -2.7164411575977137
158 2 40.7076 57.0121 52.0 -0.2430962157269264 -3.730879676327147 -4.4428661871381455e-05
159 1 42.8533 56.7569 52.0 1.5912275059280594 -12.774884512653438 -8.026983933025936e-05
160 2 42.8533 56.1258 51.1076 0.2804482904132468 1.242405588686235 -3.644183256827983
161 2 42.8533 56.1258 52.8924 0.28045281555473367 1.2422801702761608 3.644288980588177
162 1 44.1066 57.6431 52.0 -1.5912000979688263 12.782937361883812 -0.00012804093525408398
163 2 44.1066 58.2742 52.8924 -0.28144346158592826 -1.24886841632665 3.6475370551565858
164 2 44.1066 58.2742 51.1076 -0.28131788890966675 -1.2490039648830076 -3.6474079857800845
165 0 45.36 56.7569 52.0 6.232320015369015 -7.673752833390506 3.6921040768049555e-05
166 2 45.36 56.1258 52.8924 -2.8171980892534387 -0.024445300994993147 2.7154543682211956
167 2 45.36 56.1258 51.1076 -2.817010347303795 -0.024204234366691058 -2.715306221259562
168 2 46.2524 57.3879 52.0 0.24541972161426223 3.7290242654733934 -0.00020681953477621996
169 0 52.0 57.6431 52.0 -6.235203970313917 7.6746425893353685 0.003160451374162536
170 2 52.0 58.2742 52.8924 2.8176520432198746 0.02080364196134843 2.7154105566240725
171 2 52.0 58.2742 51.1076 2.816167128325361 0.0220368972827156 -2.722718814391602
172 2 51.1076 57.0121 52.0 -0.2424574508684007 -3.729759549542952 -0.0009322305683636567
173 1 53.2533 56.7569 52.0 1.5906666454939957 -12.770001216502262 0.003743423295037369
174 2 53.2533 56.1258 51.1076 0.27960692262905756 1.2393634080554798 -3.650189816509156
175 2 53.2533 56.1258 52.8924 0.28050074091684496 1.2420725794104492 3.6426297963243552
176 1 54.5066 57.6431 52.0 -1.5909466386234976 12.777961506020405 0.00379849632381579
177 2 54.5066 58.2742 52.8924 -0.28146793848760737 -1.2486700300100995 3.646110092926342
178 2 54.5066 58.2742 51.1076 -0.2807778544108552 -1.2461976058301947 -3.65359154019987
179 0 55.76 56.7569 52.0 6.233289835464958 -7.669569802884429 0.0030650634485013383
180 2 55.76 56.1258 52.8924 -2.817829706445298 -0.025082780301960123 2.714135238055702
181 2 55.76 56.1258 51.1076 -2.8162471924764416 -0.02659314911733754 -2.7214421588496105
182 2 56.6524 57.3879 52.0 0.2446414487005779 3.7283087274757776 -0.0009359329568528972
183 0 52.0 47.2431 57.2 -6.235347077913439 7.670156785726167 0.0029428332062910578
184 2 52.0 47.8742 58.0924 2.818121166694704 0.02499011774560339 2.7136307876240373
185 2 52.0 47.8742 56.3076 2.8156436003085643 0.02626821310534075 -2.720928349602598
186 2 51.1076 46.6121 57.2 -0.24455279706508454 -3.7277149054997465 -0.0013011324436711098
187 1 53.2533 46.3569 57.2 1.5927098497194554 -12.77810265958156 0.004676887992895412
188 2 53.2533 45.7258 56.3076 0.2806217370295572 1.2460962015232382 -3.654512046538018
189 2 53.2533 45.7258 58.0924 0.28172427746842776 1.2483194343889892 3.646395948170952
190 1 54.5066 47.2431 57.2 -1.5883375346018636 12.769275856890738 0.0037883661775303
191 2 54.5066 47.8742 58.0924 -0.28085010240845854 -1.242285929547144 3.642016485386693
192 2 54.5066 47.8742 56.3076 -0.2797410827897317 -1.2396337338372598 -3.6498530534228184
193 0 55.76 46.3569 57.2 6.2324821491316085 -7.673747948294583 0.003556864052825691
194 2 55.76 45.7258 58.0924 -2.817450982956082 -0.020955079934972504 2.715397855374672
195 2 55.76 45.7258 56.3076 -2.815354865428463 -0.02198521811005269 -2.7230101203748216
196 2 56.6524 46.9879 57.2 0.2420555874511266 3.7295882626532606 -0.0012737244844377967
197 0 41.6 52.4431 57.2 -6.232661406440965 7.675000641155519 0.0032213865180473473
198 2 41.6 53.0742 58.0924 2.8172288910687873 0.02026149915798045 2.715197874974188
199 2 41.6 53.0742 56.3076 2.8150734839032774 0.021348561556083334 -2.7228310173316523
200 2 40.7076 51.8121 57.2 -0.24371616011063169 -3.727367600890627 -0.0011793135779612808
201 1 42.8533 51.5569 57.2 1.5925141887722094 -12.780707855526455 0.004526992681141941
202 2 42.8533 50.9258 56.3076 0.28080757636289416 1.2466614842546642 -3.654669449470875
203 2 42.8533 50.9258 58.0924 0.2817400126195072 1.2489044117702959 3.6463677688807836
204 1 44.1066 52.4431 57.2 -1.5902918300815183 12.779936678857375 0.004252604556436434
205 2 44.1066 53.0742 58.0924 -0.2818080954300601 -1.2489852986743741 3.6462510922213087
206 2 44.1066 53.0742 56.3076 -0.2806388605763201 -1.246761911542436 -3.6544057057130757
207 0 45.36 51.5569 57.2 6.230907708426542 -7.6740584861291214 0.0033076213166100183
208 2 45.36 50.9258 58.0924 -2.817312863296607 -0.020377353064457537 2.715362631261961
209 2 45.36 50.9258 56.3076 -2.8147656714380433 -0.021216252589653872 -2.7228469067489187
210 2 46.2524 52.1879 57.2 0.24345617016338433 3.727325434799499 -0.001436475311779269
211 0 52.0 52.4431 57.2 -6.2347180318246975 7.674435666956467 0.0035329013717700177
212 2 52.0 53.0742 58.0924 2.817711384279828 0.021105026668788385 2.7156818080029748
213 2 52.0 53.0742 56.3076 2.8152543867186286 0.021962798090867597 -2.7231324534611545
214 2 51.1076 51.8121 57.2 -0.24241775303626562 -3.7294758026028987 -0.0015064093165768244
215 1 53.2533 51.5569 57.2 1.5904752011558625 -12.770252978919535 0.003777670388561185
216 2 53.2533 50.9258 56.3076 0.27950860364584224 1.2396808364463734 -3.6497104600439187
217 2 53.2533 50.9258 58.0924 0.28084398318303877 1.2422904546886309 3.641933284489809
218 1 54.5066 52.4431 57.2 -1.5908427660575484 12.777161224464034 0.004734275014479421
219 2 54.5066 53.0742 58.0924 -0.28147750299120466 -1.248389831192348 3.646380881506683
220 2 54.5066 53.0742 56.3076 -0.28061782895281845 -1.2460786151779142 -3.654567222410921
221 0 55.76 51.5569 57.2 6.2338587691628105 -7.669485727812485 0.0029951294437023336
222 2 55.76 50.9258 58.0924 -2.8182571780496226 -0.024952888172461163 2.713577000146818
223 2 55.76 50.9258 56.3076 -2.816167693968047 -0.026490407836759988 -2.7210442035090754
224 2 56.6524 52.1879 57.2 0.24458257043918585 3.7282388448930424 -0.0010863939112927914
Energy
-68832.06469312495
END_CFG

